/*--------------------------------*- C++ -*----------------------------------*\
  =========                 |
  \\      /  F ield         | OpenFOAM: The Open Source CFD Toolbox
   \\    /   O peration     | Website:  https://openfoam.org
    \\  /    A nd           | Version:  9
     \\/     M anipulation  |
\*---------------------------------------------------------------------------*/
FoamFile
{
    format      ascii;
    class       volScalarField;
    location    "86400";
    object      alphat;
}
// * * * * * * * * * * * * * * * * * * * * * * * * * * * * * * * * * * * * * //

dimensions      [1 -1 -1 0 0 0 0];

internalField   nonuniform List<scalar> 
15450
(
0.000156536
0.000162822
0.000160079
0.000151071
0.000136385
0.000120726
0.000106185
0.000108213
0.000137775
0.000225074
0.000313455
0.000350984
0.000359328
8.79102e-05
0.000106102
0.000107572
0.000108645
0.000112085
0.000122497
0.000136187
0.000147765
0.000162862
0.000184906
0.000196003
0.000187887
0.000188763
0.000194669
0.000213087
0.000232567
0.000224034
0.000226139
0.000237272
0.000258406
0.000270928
0.000248127
0.000232497
0.000221242
0.000233866
0.000222034
0.000270637
0.000282193
0.000280626
0.000262301
0.000226028
0.000207606
0.000197517
0.00021442
0.000259073
0.000301463
0.000246308
0.00016809
0.000152969
0.000251127
0.000272979
0.000254543
0.000218207
0.000200514
0.000209152
0.000228746
0.000226798
0.000245858
0.00032172
0.000395796
0.000404475
0.000356011
0.000315822
0.000363202
0.000455662
0.000490574
0.000435076
0.000357233
0.000377614
0.000458197
0.000760536
0.000682761
0.00053609
0.000276889
0.000323779
0.000342213
0.000349055
0.000337365
0.000313717
0.000292539
0.000310393
0.00032275
0.000312651
0.000284727
0.000246439
0.00025416
0.000354294
0.000436246
0.000448289
0.000397483
0.000363489
0.000336331
0.000344394
0.000350318
0.00034899
0.000392369
0.000522734
0.000711209
0.000754596
0.000713338
0.000641038
0.000698652
0.000917357
0.00108152
0.00107165
0.000935478
0.000902653
0.00111146
0.00158874
0.00170832
0.00153749
0.000318798
0.000356157
0.000389057
0.000404559
0.0003931
0.000382806
0.000389886
0.000379819
0.00035966
0.000325707
0.000302462
0.000325122
0.000440355
0.000601199
0.00067267
0.00069302
0.000670035
0.000627775
0.000581093
0.000586354
0.000600889
0.000602904
0.000683858
0.000873918
0.00110411
0.0012126
0.00121863
0.00120619
0.00125383
0.00148519
0.00175739
0.00181225
0.00181418
0.00182671
0.00205445
0.00234014
0.00247271
0.00244041
0.000349367
0.000376384
0.000443835
0.000457543
0.000446276
0.000450108
0.000446254
0.000433222
0.000383514
0.000352815
0.000362128
0.000476631
0.000707193
0.000878252
0.000960942
0.000997232
0.000998833
0.000973832
0.00093624
0.000950698
0.000991496
0.00102116
0.00110482
0.00127729
0.00148676
0.00166543
0.00172405
0.00179504
0.00188852
0.00209811
0.00236176
0.002516
0.00264922
0.00274045
0.00293887
0.00306448
0.00320747
0.00324256
8.49494e-05
0.00038527
0.000506672
0.000515618
0.000514533
0.000520518
0.000513171
0.000477602
0.000422135
0.000411083
0.000476935
0.000698729
0.000998888
0.00118486
0.00128152
0.00134832
0.00137212
0.00137192
0.00135988
0.0013837
0.00143974
0.00149667
0.0015868
0.00173391
0.00191727
0.00213108
0.00225458
0.00238177
0.00254094
0.00275117
0.00299756
0.00321792
0.00338765
0.00356129
0.00373899
0.00383122
0.00395018
0.00399354
9.17319e-05
0.00045981
0.000591944
0.000593645
0.000598075
0.000601581
0.000589239
0.000540595
0.000521987
0.000545509
0.000701949
0.000975163
0.00128389
0.00150416
0.00162939
0.00171546
0.00177536
0.00180788
0.00182437
0.00185542
0.00192476
0.00201482
0.00212082
0.00225921
0.00242855
0.00263609
0.00282109
0.00299697
0.0032025
0.00343022
0.00367279
0.00391033
0.00411229
0.00430506
0.00448244
0.0045888
0.00469131
0.00475772
0.000101469
0.000538004
0.000688046
0.000685005
0.000694605
0.000700023
0.00068764
0.000686488
0.000705894
0.000800523
0.00100688
0.00128305
0.00158243
0.00182273
0.00198572
0.00209917
0.0021854
0.00225353
0.00230695
0.00236784
0.00245499
0.00256452
0.0026921
0.00284163
0.00301466
0.00321974
0.00342539
0.00363996
0.00387361
0.00411753
0.00436269
0.00459986
0.00481868
0.00501992
0.00519565
0.00531859
0.00542291
0.00550806
0.000109301
0.000617573
0.00078404
0.000785152
0.000806397
0.000815954
0.000835989
0.000889028
0.000953252
0.00111544
0.00134584
0.00162179
0.00191128
0.00216177
0.00235171
0.00249912
0.00261696
0.00271616
0.0028067
0.00290102
0.00301005
0.00313954
0.00328854
0.00345738
0.00364565
0.00385154
0.00407137
0.00430412
0.00455102
0.00480306
0.00505053
0.00528658
0.0055063
0.00570717
0.00588249
0.00601689
0.00613087
0.00622493
0.000116989
0.000694833
0.00087549
0.00089868
0.000925506
0.000960669
0.00102719
0.0011259
0.00125586
0.00146685
0.00171215
0.00198676
0.0022685
0.00252521
0.00273863
0.00291453
0.00306297
0.00319452
0.00331822
0.00344281
0.00357707
0.0037291
0.00390116
0.00408624
0.00428751
0.00450403
0.0047336
0.00497478
0.00522549
0.00547823
0.00572431
0.00595751
0.00617403
0.0063712
0.00654439
0.00668546
0.00680926
0.00691132
0.000124468
0.000763045
0.000970639
0.00101698
0.0010561
0.00112677
0.00124503
0.00139286
0.00158479
0.00183131
0.00209287
0.0023701
0.00265034
0.00291205
0.00314286
0.00334324
0.00351955
0.00368038
0.00383374
0.00398678
0.00414654
0.00432316
0.00451211
0.00471214
0.00492638
0.00515304
0.00538997
0.0056351
0.00588533
0.00613475
0.00637647
0.00660512
0.00681727
0.00701076
0.00717971
0.00732716
0.0074557
0.00756587
0.000131242
0.000821389
0.00106266
0.00113778
0.00120355
0.00131085
0.00147499
0.00167461
0.00191957
0.00219547
0.00247746
0.00276517
0.00304855
0.00331694
0.00356205
0.00378298
0.00398354
0.00417015
0.00434951
0.00452762
0.00471204
0.00490915
0.00511234
0.00532589
0.00555077
0.00578517
0.00602683
0.00627321
0.00652104
0.0067656
0.00700166
0.0072249
0.00743234
0.00762169
0.00778837
0.0079397
0.00807204
0.00818861
0.0001369
0.000869789
0.00115187
0.00126388
0.00136306
0.00150632
0.00171009
0.00195766
0.00224797
0.00255111
0.00285598
0.00315848
0.00345238
0.00373087
0.00398978
0.00422871
0.00445027
0.00465929
0.0048612
0.00506105
0.0052663
0.00548022
0.00569625
0.00592081
0.00615371
0.00639323
0.0066371
0.00688271
0.00712698
0.00736614
0.00759628
0.00781412
0.00801737
0.00820222
0.00836927
0.00852189
0.00865825
0.00878022
0.000141522
0.000910298
0.00124047
0.00139387
0.00153027
0.00170474
0.00194646
0.00223869
0.00256286
0.00289347
0.00322222
0.00354344
0.00385266
0.00414392
0.00441758
0.00467342
0.00491375
0.00514241
0.00536389
0.00558245
0.00580454
0.00603229
0.00625961
0.00649274
0.00673134
0.00697376
0.00721774
0.00746081
0.00770045
0.00793379
0.00815804
0.0083708
0.00857027
0.00875212
0.00892003
0.00907474
0.00921469
0.00934169
0.000145355
0.000943937
0.00132713
0.00152524
0.00169661
0.00190414
0.00218118
0.00251181
0.00286351
0.0032201
0.00357224
0.00391342
0.00423953
0.00454767
0.00483731
0.0051099
0.00536772
0.00561409
0.00585283
0.00608759
0.00632352
0.00656268
0.00679961
0.00703934
0.00728191
0.00752562
0.00776812
0.00800681
0.00824038
0.00846679
0.00868507
0.00889329
0.00908989
0.00927096
0.00944039
0.00959768
0.00974195
0.0098743
0.000148436
0.000971411
0.00141074
0.00165725
0.00186317
0.00210404
0.00241254
0.00277452
0.00315025
0.00353042
0.00390461
0.00426593
0.00461044
0.0049361
0.00524287
0.00553241
0.0058071
0.00606999
0.0063244
0.0065735
0.00682124
0.0070699
0.00731483
0.00755959
0.00780485
0.00804908
0.00828964
0.00852149
0.00874686
0.00896841
0.00918277
0.00938811
0.0095831
0.00976483
0.00993659
0.0100967
0.0102452
0.0103825
0.000151045
0.000993574
0.00149004
0.00178397
0.00202787
0.00230178
0.00264007
0.00302599
0.00342368
0.00382487
0.00421932
0.00460003
0.00496312
0.00530691
0.00563122
0.005938
0.00622941
0.0065082
0.00677729
0.00703947
0.00729761
0.00755423
0.00780556
0.00805359
0.0083
0.00854456
0.00877944
0.00900515
0.00922828
0.00944797
0.00966017
0.00986396
0.010057
0.0102396
0.0104128
0.0105748
0.0107261
0.0108671
0.000153121
0.00100998
0.00156135
0.00190467
0.00218877
0.00249624
0.0028622
0.0032685
0.00368517
0.00410448
0.00451709
0.00491627
0.0052981
0.00566067
0.00600358
0.00632844
0.006637
0.00693157
0.00721469
0.00748884
0.00775625
0.00801932
0.00827558
0.0085236
0.00876689
0.00900657
0.0092346
0.00945787
0.00967978
0.00989742
0.0101083
0.010311
0.0105035
0.010688
0.0108626
0.011027
0.0111816
0.0113266
0.000154923
0.00102569
0.00163492
0.00202565
0.00234838
0.00268513
0.00307402
0.00349569
0.00392823
0.00436421
0.00479467
0.00521261
0.00561359
0.00599458
0.00635584
0.00669783
0.007022
0.00733041
0.0076254
0.00790938
0.00818458
0.00845418
0.00871873
0.00896234
0.00919719
0.00943036
0.00965565
0.00988008
0.0101017
0.0103185
0.0105289
0.0107308
0.0109248
0.0111108
0.0112874
0.0114547
0.0116129
0.0117623
0.00015651
0.00103906
0.00170142
0.00213966
0.00250132
0.00286879
0.00328012
0.00371744
0.00416411
0.00461308
0.00505619
0.00548679
0.00590051
0.00629384
0.00666802
0.00702255
0.00735871
0.00767839
0.00798377
0.00827705
0.00856031
0.0088361
0.00910404
0.00935043
0.00958501
0.00981858
0.0100477
0.0102737
0.0104958
0.0107128
0.010923
0.0111257
0.0113217
0.0115094
0.0116886
0.0118591
0.0120213
0.0121753
0.000157957
0.00105043
0.00176382
0.00224907
0.00264858
0.00304585
0.00347797
0.00392966
0.00438874
0.00484893
0.00530295
0.00574425
0.00616719
0.00657301
0.00695866
0.00732437
0.00767126
0.00800102
0.0083156
0.00861697
0.0089071
0.00918774
0.00945848
0.00970835
0.00994544
0.010181
0.0104128
0.0106406
0.0108638
0.0110815
0.0112923
0.0114973
0.011695
0.011885
0.0120671
0.0122413
0.0124077
0.0125666
0.000159351
0.00106137
0.00182232
0.00235398
0.0027914
0.0032171
0.00366856
0.00413316
0.00460314
0.00507268
0.00553454
0.00598348
0.00641752
0.00683326
0.00722878
0.00760422
0.00796051
0.00829912
0.00862176
0.00893021
0.00922644
0.00951125
0.00978524
0.0100391
0.0102798
0.0105181
0.0107525
0.0109823
0.0112071
0.0114257
0.0116389
0.0118458
0.0120457
0.0122385
0.0124239
0.0126021
0.0127731
0.0129371
0.000160745
0.00107139
0.00187715
0.00245365
0.00292763
0.00337948
0.0038499
0.00432665
0.00480533
0.00528189
0.00575119
0.00620946
0.00665203
0.00707582
0.00747963
0.00786337
0.00822776
0.00857404
0.00890368
0.00921868
0.00951996
0.00980882
0.0100864
0.0103446
0.0105894
0.010831
0.0110681
0.0113002
0.0115267
0.0117477
0.0119632
0.0121723
0.0123749
0.0125708
0.01276
0.0129424
0.0131182
0.0132875
0.00016211
0.00108056
0.00192826
0.00254808
0.00305754
0.00353461
0.00402096
0.00450868
0.00499607
0.00548063
0.00595793
0.00642261
0.00687143
0.00730181
0.00771248
0.00810318
0.00847438
0.00882745
0.00916335
0.00948356
0.00978954
0.0100826
0.0103639
0.0106265
0.0108757
0.0111208
0.0113609
0.0115955
0.0118244
0.0120482
0.0122661
0.0124779
0.0126835
0.0128829
0.0130761
0.013263
0.0134437
0.0136183
0.000163416
0.00108808
0.00197545
0.00263707
0.00318084
0.00368267
0.00418531
0.00468377
0.00517957
0.00567051
0.00615295
0.0066227
0.00707656
0.00751224
0.00792849
0.00832516
0.00870226
0.00906062
0.0094017
0.00972681
0.0100372
0.0103343
0.0106193
0.0108864
0.0111401
0.0113888
0.0116321
0.0118694
0.0121014
0.0123279
0.0125486
0.0127634
0.0129724
0.0131756
0.0133729
0.0135643
0.0137501
0.0139301
0.000164756
0.00109456
0.00201883
0.00272041
0.0032972
0.00382297
0.00434141
0.00485039
0.00535353
0.00584993
0.0063367
0.0068104
0.00726815
0.00770821
0.00812936
0.00853038
0.00891198
0.00927507
0.00962072
0.00995017
0.0102647
0.0105656
0.0108541
0.0111256
0.0113839
0.0116364
0.011883
0.0121233
0.0123584
0.0125879
0.0128116
0.0130298
0.0132423
0.0134494
0.013651
0.0138472
0.014038
0.0142236
0.000166273
0.00109877
0.00205786
0.00279758
0.00340612
0.00395522
0.00448882
0.00500796
0.00551796
0.00601916
0.00650951
0.00698627
0.00744719
0.00789094
0.00831528
0.00871979
0.00910522
0.00947224
0.00982181
0.0101551
0.0104733
0.0107779
0.0110699
0.0113456
0.0116082
0.0118645
0.0121146
0.0123581
0.0125963
0.012829
0.0130561
0.0132777
0.013494
0.0137052
0.0139112
0.0141121
0.014308
0.014499
0.00016768
0.0010996
0.00209128
0.00286782
0.00350714
0.004079
0.00462733
0.00515635
0.00567285
0.00617834
0.00667168
0.00715079
0.00761442
0.00806072
0.00848722
0.00889459
0.00928308
0.00965333
0.0100062
0.0103429
0.0106645
0.0109724
0.0112677
0.0115474
0.0118143
0.0120744
0.0123279
0.0125748
0.0128162
0.0130523
0.0132828
0.013508
0.0137282
0.0139434
0.0141539
0.0143595
0.0145605
0.0147569
0.000168514
0.00109645
0.00211918
0.0029311
0.0036001
0.00419407
0.00475679
0.00529544
0.00581816
0.00632757
0.00682345
0.00730448
0.00777021
0.00821786
0.00864615
0.00905564
0.00944653
0.00981939
0.0101751
0.0105146
0.0108393
0.0111502
0.0114486
0.0117321
0.012003
0.0122668
0.0125237
0.0127742
0.0130189
0.0132585
0.0134926
0.0137216
0.0139457
0.0141651
0.0143799
0.0145902
0.0147962
0.0149977
0.000169262
0.00109544
0.00214396
0.00298827
0.00368528
0.00430043
0.00487712
0.00542514
0.00595382
0.00646686
0.00696489
0.00744764
0.00791479
0.00836309
0.00879267
0.0092037
0.0095964
0.00997132
0.0103293
0.0106713
0.0109986
0.0113125
0.0116148
0.0119025
0.0121779
0.0124457
0.0127065
0.0129606
0.0132084
0.0134513
0.0136889
0.0139215
0.0141495
0.014373
0.0145921
0.014807
0.0150178
0.0152245
0.000170658
0.00109546
0.0021658
0.00303961
0.00376285
0.00439806
0.00498826
0.00554537
0.0060798
0.00659626
0.00709622
0.00758042
0.00804824
0.00849694
0.00892732
0.00933936
0.0097334
0.0101098
0.0104699
0.0108153
0.0111462
0.0114636
0.0117683
0.012059
0.0123375
0.0126083
0.012872
0.0131292
0.01338
0.0136259
0.013867
0.0141032
0.014335
0.0145626
0.014786
0.0150055
0.0152211
0.0154329
0.000172288
0.00108868
0.00218208
0.00308433
0.00383256
0.00448686
0.00509016
0.00565609
0.0061961
0.00671582
0.00721754
0.00770291
0.00817086
0.00861975
0.00905052
0.00946305
0.00985842
0.0102378
0.0106007
0.0109478
0.01128
0.0115989
0.0119057
0.0121992
0.012481
0.012755
0.0130219
0.0132823
0.0135365
0.0137855
0.01403
0.0142699
0.0145055
0.014737
0.0149646
0.0151885
0.0154087
0.0156252
0.000173214
0.00107724
0.00219074
0.00312169
0.00389419
0.00456684
0.00518285
0.00575733
0.00630272
0.00682556
0.00732889
0.00781515
0.00828289
0.00873166
0.00916278
0.00957755
0.00997486
0.0103545
0.0107177
0.0110656
0.0113996
0.0117206
0.0120297
0.012326
0.0126109
0.0128879
0.0131578
0.0134212
0.0136787
0.0139308
0.0141786
0.014422
0.0146613
0.0148966
0.0151282
0.0153563
0.0155809
0.0158021
0.000173377
0.00106488
0.00219578
0.00315221
0.00394839
0.00463839
0.00526651
0.00584916
0.00639972
0.0069255
0.00743035
0.0079172
0.00838473
0.00883497
0.00926767
0.00968191
0.0100784
0.0104582
0.0108223
0.0111716
0.0115071
0.0118299
0.0121412
0.0124401
0.0127278
0.0130076
0.0132803
0.0135467
0.0138073
0.0140624
0.0143133
0.0145601
0.0148028
0.0150419
0.0152774
0.0155095
0.0157383
0.0159638
0.000172638
0.00106007
0.00220496
0.00318091
0.00399621
0.00470209
0.00534139
0.00593173
0.00648714
0.00701572
0.00752206
0.0080103
0.00847939
0.00892951
0.00936072
0.0097741
0.0101707
0.010551
0.0109158
0.0112662
0.011603
0.0119275
0.0122406
0.0125424
0.0128323
0.0131147
0.01339
0.0136591
0.0139226
0.0141808
0.0144346
0.0146846
0.0149307
0.0151732
0.0154123
0.0156483
0.0158811
0.0161108
0.000173873
0.00106173
0.00221267
0.00320547
0.00403731
0.00475832
0.00540784
0.00600525
0.00656499
0.00709666
0.00760645
0.00809593
0.0085637
0.00901227
0.00944301
0.00985628
0.0102528
0.0106334
0.0109988
0.01135
0.0116879
0.0120136
0.0123281
0.0126327
0.0129253
0.0132097
0.0134874
0.0137591
0.0140253
0.0142864
0.0145429
0.0147959
0.0150452
0.015291
0.0155336
0.0157731
0.0160097
0.0162433
0.000175789
0.00105214
0.00221271
0.00322268
0.00407149
0.00480528
0.00546471
0.00606996
0.00663581
0.00717143
0.00768189
0.00817005
0.00863729
0.00908558
0.00951586
0.00992883
0.0103252
0.0107059
0.0110717
0.0114234
0.0117622
0.0120891
0.0124049
0.0127107
0.0130062
0.0132929
0.0135729
0.013847
0.0141157
0.0143796
0.0146388
0.0148944
0.0151467
0.0153957
0.0156415
0.0158844
0.0161245
0.0163617
0.000176201
0.0010349
0.00220617
0.00323396
0.00410028
0.00484796
0.00551695
0.00612897
0.00669871
0.00723554
0.00774645
0.00823476
0.00870185
0.00914975
0.00957953
0.00999207
0.0103882
0.0107688
0.0111347
0.011487
0.0118265
0.0121542
0.0124712
0.0127784
0.0130759
0.0133648
0.013647
0.0139233
0.0141944
0.0144607
0.0147225
0.0149807
0.0152357
0.0154876
0.0157364
0.0159824
0.0162258
0.0164664
0.000175911
0.00101847
0.00219778
0.00324198
0.00412386
0.00488369
0.0055608
0.00617801
0.00675096
0.00729008
0.00780229
0.00829073
0.00875763
0.00920507
0.0096343
0.0100463
0.0104421
0.0108225
0.0111885
0.011541
0.011881
0.0122095
0.0125275
0.0128359
0.0131351
0.0134259
0.0137101
0.0139885
0.0142617
0.0145303
0.0147946
0.015055
0.0153126
0.0155671
0.0158187
0.0160676
0.0163139
0.0165577
0.00017568
0.00101044
0.00219029
0.00324668
0.00414066
0.00491092
0.00559565
0.00621846
0.00679513
0.0073364
0.00784971
0.00833825
0.00880492
0.00925186
0.00968048
0.0100919
0.0104872
0.0108673
0.0112332
0.0115858
0.0119262
0.0122553
0.0125741
0.0128836
0.0131841
0.0134767
0.0137627
0.0140429
0.0143181
0.0145886
0.0148552
0.0151178
0.0153776
0.0156345
0.0158886
0.0161402
0.0163892
0.0166358
0.000174788
0.00100968
0.00218824
0.00324979
0.00415298
0.00493221
0.00562375
0.00625157
0.00683157
0.0073748
0.00788903
0.00837764
0.00884403
0.00929042
0.00971837
0.0101292
0.0105239
0.0109036
0.0112692
0.0116219
0.0119624
0.012292
0.0126114
0.0129217
0.0132235
0.0135175
0.013805
0.0140869
0.0143638
0.0146362
0.0149047
0.0151695
0.0154312
0.0156903
0.0159467
0.0162006
0.0164521
0.0167013
0.000176531
0.00100674
0.00218252
0.0032489
0.00416038
0.0049477
0.00564534
0.00627765
0.00686063
0.00740561
0.0079206
0.00840923
0.00887527
0.00932105
0.00974828
0.0101583
0.0105524
0.0109316
0.0112969
0.0116494
0.01199
0.0123198
0.0126397
0.0129507
0.0132534
0.0135486
0.0138376
0.0141209
0.0143994
0.0146734
0.0149436
0.0152102
0.0154736
0.0157346
0.0159931
0.0162491
0.0165028
0.0167543
0.000177006
0.000991163
0.0021672
0.00324176
0.00416229
0.00495735
0.00566062
0.00629699
0.00688266
0.0074292
0.00794473
0.00843335
0.00889898
0.00934409
0.00977054
0.0101798
0.0105732
0.0109517
0.0113166
0.0116688
0.0120094
0.0123392
0.0126594
0.0129708
0.0132743
0.0135706
0.0138607
0.0141453
0.014425
0.0147004
0.0149721
0.0152403
0.0155054
0.015768
0.0160282
0.0162861
0.0165418
0.0167953
0.000177299
0.000961918
0.00214456
0.00322935
0.00415907
0.00496136
0.00566983
0.0063099
0.00689799
0.00744588
0.00796182
0.00845035
0.00891548
0.00935985
0.00978545
0.0101938
0.0105864
0.0109643
0.0113286
0.0116804
0.0120207
0.0123505
0.0126708
0.0129825
0.0132865
0.0135836
0.0138747
0.0141603
0.0144411
0.0147177
0.0149906
0.0152602
0.0155267
0.0157907
0.0160524
0.0163119
0.0165693
0.0168245
0.00017639
0.000945166
0.00212337
0.00321484
0.00415166
0.00496018
0.00567335
0.00631675
0.00690697
0.00745602
0.00797223
0.00846056
0.00892511
0.00936867
0.00979334
0.0102008
0.0105924
0.0109695
0.0113331
0.0116844
0.0120244
0.012354
0.0126742
0.0129859
0.0132903
0.0135881
0.0138799
0.0141663
0.014448
0.0147255
0.0149995
0.0152702
0.0155379
0.015803
0.016066
0.0163269
0.0165856
0.0168424
0.000175871
0.000942686
0.00210986
0.00320031
0.00414098
0.00495436
0.00567162
0.00631789
0.00690997
0.00745997
0.00797631
0.00846433
0.00892821
0.00937087
0.00979454
0.010201
0.0105916
0.0109678
0.0113306
0.0116812
0.0120207
0.0123499
0.0126699
0.0129815
0.0132861
0.0135843
0.0138765
0.0141636
0.0144459
0.0147242
0.0149989
0.0152705
0.0155392
0.0158053
0.0160693
0.0163313
0.0165912
0.0168492
0.000175609
0.000944531
0.00210023
0.00318545
0.00412738
0.0049443
0.005665
0.00631371
0.00690734
0.00745807
0.0079744
0.00846199
0.0089251
0.00936677
0.00978934
0.0101946
0.0105842
0.0109593
0.0113213
0.0116711
0.0120099
0.0123386
0.0126582
0.0129696
0.0132741
0.0135725
0.013865
0.0141524
0.0144353
0.0147141
0.0149894
0.0152616
0.015531
0.0157979
0.0160627
0.0163255
0.0165863
0.0168453
0.000176242
0.000939357
0.00208568
0.0031668
0.00410994
0.00492999
0.00565369
0.00630448
0.00689939
0.00745064
0.00796682
0.00845385
0.00891607
0.00935666
0.00977802
0.0101821
0.0105704
0.0109445
0.0113054
0.0116543
0.0119923
0.0123203
0.0126394
0.0129503
0.0132545
0.0135529
0.0138456
0.0141332
0.0144162
0.0146954
0.014971
0.0152437
0.0155136
0.015781
0.0160464
0.0163098
0.0165713
0.016831
0.000176545
0.000914531
0.00205628
0.00314026
0.00408754
0.00491125
0.00563781
0.00629045
0.00688638
0.00743794
0.00795382
0.00844014
0.00890135
0.00934074
0.0097608
0.0101635
0.0105506
0.0109234
0.0112831
0.011631
0.0119681
0.0122953
0.0126136
0.0129239
0.0132277
0.0135259
0.0138185
0.014106
0.0143891
0.0146684
0.0149442
0.015217
0.0154872
0.015755
0.0160207
0.0162845
0.0165464
0.0168066
0.000176623
0.000875736
0.00201895
0.00310985
0.00406174
0.00488867
0.00561756
0.00627167
0.00686835
0.00741998
0.00793541
0.00842087
0.00888095
0.00931905
0.00973773
0.010139
0.0105247
0.0108961
0.0112546
0.0116014
0.0119374
0.0122637
0.0125812
0.0128907
0.0131936
0.0134915
0.0137838
0.0140712
0.0143542
0.0146333
0.0149091
0.015182
0.0154522
0.0157201
0.0159859
0.0162499
0.0165121
0.0167726
0.000175466
0.00085241
0.0019879
0.00307756
0.00403169
0.00486093
0.00559174
0.00624714
0.00684441
0.00739606
0.00791099
0.00839554
0.00885446
0.00929125
0.00970852
0.0101084
0.0104926
0.0108627
0.0112198
0.0115654
0.0119003
0.0122256
0.0125422
0.012851
0.0131534
0.0134508
0.0137426
0.0140295
0.0143121
0.014591
0.0148665
0.0151391
0.0154092
0.015677
0.0159427
0.0162066
0.0164688
0.0167293
0.000174218
0.000859392
0.00197109
0.0030514
0.00400127
0.00483015
0.00556188
0.00621817
0.00681586
0.00736746
0.00788185
0.00836545
0.00882318
0.00925861
0.00967443
0.0100728
0.0104555
0.0108241
0.0111799
0.0115241
0.0118578
0.0121821
0.0124979
0.0128062
0.0131083
0.0134046
0.0136956
0.0139818
0.0142638
0.014542
0.0148171
0.0150892
0.0153588
0.0156262
0.0158916
0.0161551
0.0164171
0.0166774
0.000174082
0.000865749
0.00195867
0.00302415
0.0039693
0.0047979
0.00553053
0.00618761
0.00678563
0.00733704
0.00785075
0.00833324
0.00878961
0.00922351
0.00963769
0.0100344
0.0104154
0.0107823
0.0111365
0.0114793
0.0118116
0.0121346
0.0124492
0.0127565
0.0130574
0.0133526
0.0136425
0.0139277
0.0142088
0.0144863
0.0147605
0.015032
0.0153009
0.0155677
0.0158325
0.0160954
0.0163569
0.0166168
0.000173898
0.000854207
0.00193311
0.00299055
0.00393373
0.00476258
0.00549595
0.00615362
0.00675182
0.0073029
0.00781586
0.00829715
0.00875209
0.00918439
0.00959683
0.00999172
0.010371
0.0107361
0.0110886
0.0114297
0.0117605
0.0120821
0.0123954
0.0127014
0.0130009
0.0132948
0.0135835
0.0138676
0.0141476
0.014424
0.0146973
0.0149678
0.0152359
0.0155018
0.0157657
0.0160279
0.0162886
0.0165479
0.000174291
0.000819554
0.00189324
0.00295107
0.00389488
0.00472431
0.00545827
0.00611635
0.00671461
0.00726528
0.0077774
0.00825746
0.00871091
0.00914152
0.00955215
0.00994516
0.0103225
0.0106858
0.0110365
0.0113758
0.0117049
0.0120248
0.0123366
0.0126411
0.0129392
0.0132316
0.0135188
0.0138016
0.0140803
0.0143555
0.0146276
0.014897
0.0151639
0.0154288
0.0156917
0.0159529
0.0162124
0.0164709
0.000173521
0.000780673
0.00185077
0.00290954
0.00385365
0.0046832
0.00541751
0.0060759
0.00667415
0.00722436
0.00773559
0.00821438
0.0086663
0.00909515
0.00950389
0.00989494
0.0102703
0.0106316
0.0109803
0.0113177
0.011645
0.0119632
0.0122732
0.012576
0.0128725
0.0131632
0.0134489
0.0137301
0.0140074
0.0142811
0.0145518
0.0148198
0.0150855
0.015349
0.0156106
0.0158705
0.0161289
0.0163862
0.000172135
0.000762277
0.00181717
0.00286995
0.00381087
0.00463946
0.00537385
0.00603245
0.00663062
0.00718032
0.00769061
0.00816813
0.00861847
0.00904551
0.0094523
0.00984131
0.0102146
0.0105738
0.0109204
0.0112558
0.0115811
0.0118973
0.0122055
0.0125065
0.0128011
0.01309
0.0133739
0.0136534
0.013929
0.0142011
0.0144702
0.0147366
0.0150007
0.0152627
0.0155228
0.0157813
0.0160382
0.0162939
0.000170931
0.00077041
0.00179864
0.00283333
0.0037669
0.00459349
0.00532762
0.00598626
0.00658423
0.00713334
0.00764265
0.00811889
0.00856762
0.0089928
0.00939759
0.0097845
0.0101556
0.0105126
0.0108571
0.0111903
0.0115135
0.0118276
0.0121337
0.0124327
0.0127253
0.0130123
0.0132943
0.0135718
0.0138455
0.0141158
0.014383
0.0146477
0.01491
0.0151702
0.0154286
0.0156854
0.0159406
0.0161945
0.000170265
0.000776068
0.00177902
0.00279508
0.00372137
0.00454568
0.00527917
0.00593753
0.00653513
0.00708358
0.00759186
0.00806682
0.00851391
0.00893723
0.00933997
0.00972472
0.0100936
0.0104484
0.0107906
0.0111215
0.0114424
0.0117543
0.0120582
0.012355
0.0126454
0.0129303
0.0132101
0.0134856
0.0137572
0.0140254
0.0142906
0.0145532
0.0148136
0.0150718
0.0153283
0.0155831
0.0158363
0.0160882
0.000170227
0.000756697
0.0017442
0.00275164
0.00367391
0.00449615
0.00522859
0.00588636
0.00648343
0.00703115
0.0075384
0.00801205
0.00845751
0.00887895
0.00927963
0.00966219
0.0100288
0.0103812
0.010721
0.0110496
0.0113681
0.0116777
0.0119792
0.0122737
0.0125618
0.0128443
0.0131218
0.013395
0.0136643
0.0139303
0.0141933
0.0144537
0.0147118
0.0149678
0.015222
0.0154746
0.0157257
0.0159753
0.000169937
0.000703907
0.00169481
0.00270408
0.00362463
0.00444467
0.0051757
0.0058327
0.00642916
0.00697613
0.00748236
0.0079547
0.00839855
0.00881812
0.00921673
0.00959707
0.00996133
0.0103114
0.0106487
0.0109748
0.0112909
0.0115979
0.011897
0.0121889
0.0124746
0.0127546
0.0130297
0.0133004
0.0135672
0.0138307
0.0140913
0.0143492
0.0146048
0.0148584
0.0151102
0.0153604
0.015609
0.0158562
0.000168285
0.000671562
0.00165204
0.00265783
0.003574
0.00439089
0.00512032
0.00577652
0.00637237
0.0069186
0.00742383
0.00789489
0.00833716
0.00875488
0.00915143
0.00952954
0.00989144
0.010239
0.0105739
0.0108974
0.0112109
0.0115154
0.0118118
0.0121011
0.0123841
0.0126615
0.0129339
0.0132019
0.0134662
0.013727
0.0139848
0.0142401
0.0144931
0.014744
0.0149931
0.0152405
0.0154864
0.0157309
0.00016632
0.000668742
0.00162683
0.00261573
0.00352216
0.00433485
0.00506258
0.00571795
0.00631315
0.00685863
0.00736288
0.00783269
0.00827342
0.00868933
0.00908385
0.00945974
0.00981928
0.0101644
0.0104967
0.0108176
0.0111284
0.0114302
0.0117239
0.0120104
0.0122906
0.0125652
0.0128347
0.0131
0.0133613
0.0136193
0.0138743
0.0141266
0.0143767
0.0146246
0.0148708
0.0151152
0.0153582
0.0155996
0.000164924
0.000687785
0.00161177
0.00257367
0.00346871
0.00427706
0.00500288
0.00565719
0.00625161
0.00679629
0.00729958
0.00776818
0.00820742
0.00862158
0.00901411
0.00938781
0.00974499
0.0100876
0.0104173
0.0107356
0.0110436
0.0113425
0.0116334
0.011917
0.0121942
0.0124658
0.0127324
0.0129946
0.013253
0.0135079
0.0137597
0.014009
0.0142558
0.0145006
0.0147436
0.0149848
0.0152244
0.0154625
0.000164602
0.000681478
0.00157994
0.00252569
0.0034136
0.00421805
0.00494147
0.00559432
0.00618776
0.0067316
0.00723396
0.00770139
0.00813921
0.00855169
0.00894228
0.00931382
0.00966867
0.0100088
0.0103359
0.0106514
0.0109566
0.0112526
0.0115405
0.0118211
0.0120952
0.0123637
0.0126271
0.0128861
0.0131412
0.0133928
0.0136414
0.0138873
0.0141308
0.0143721
0.0146116
0.0148493
0.0150853
0.0153198
0.000164623
0.000631283
0.00152789
0.00247341
0.00335763
0.0041578
0.00487816
0.00552922
0.00612157
0.00666457
0.00716602
0.00763236
0.00806884
0.00847969
0.00886841
0.00923785
0.00959039
0.00992803
0.0102525
0.0105652
0.0108676
0.0111606
0.0114453
0.0117226
0.0119934
0.0122586
0.0125188
0.0127744
0.0130262
0.0132744
0.0135194
0.0137618
0.0140016
0.0142393
0.014475
0.0147088
0.014941
0.0151715
0.000162638
0.000589087
0.00148011
0.00242339
0.00330138
0.0040957
0.00481256
0.00546174
0.00605301
0.00659517
0.00709576
0.00756107
0.00799626
0.00840557
0.00879248
0.00915986
0.00951012
0.00984528
0.0101671
0.010477
0.0107764
0.0110663
0.0113477
0.0116215
0.0118886
0.0121504
0.0124073
0.0126595
0.0129078
0.0131524
0.0133938
0.0136324
0.0138684
0.0141021
0.0143338
0.0145635
0.0147915
0.0150178
0.000160033
0.000580332
0.00145487
0.00238109
0.00324453
0.00403128
0.00474458
0.00539193
0.00598208
0.00652337
0.0070231
0.00748741
0.00792138
0.0083292
0.00871433
0.00907967
0.00942764
0.00976032
0.0100794
0.0103864
0.0106827
0.0109694
0.0112475
0.0115175
0.0117809
0.0120397
0.0122932
0.0125419
0.0127866
0.0130275
0.013265
0.0134996
0.0137316
0.0139611
0.0141885
0.0144138
0.0146372
0.0148588
0.000157846
0.000603902
0.00144043
0.00233449
0.00318382
0.00396461
0.0046746
0.00531989
0.0059087
0.00644899
0.0069478
0.00741109
0.00784384
0.00825017
0.00863343
0.00899664
0.00934226
0.00967242
0.009989
0.0102939
0.010588
0.0108723
0.0111478
0.0114151
0.0116758
0.0119316
0.0121817
0.0124268
0.0126675
0.0129042
0.0131374
0.0133673
0.0135945
0.013819
0.0140412
0.0142611
0.0144791
0.0146951
0.000157072
0.000601473
0.00141242
0.00228104
0.00312129
0.00389671
0.00460277
0.00524542
0.00583248
0.00637147
0.00686912
0.00733121
0.00776261
0.00816747
0.00854953
0.00891165
0.00925609
0.00958487
0.00989977
0.0102022
0.0104936
0.0107749
0.0110471
0.0113113
0.0115691
0.0118213
0.0120676
0.0123088
0.0125453
0.0127777
0.0130065
0.0132319
0.0134543
0.013674
0.0138912
0.0141061
0.0143187
0.0145291
0.000158273
0.000551579
0.00134667
0.00221999
0.00305618
0.00382613
0.0045276
0.00516707
0.00575237
0.00629049
0.00678773
0.00724958
0.00768074
0.00808522
0.00846631
0.008827
0.00916972
0.00949632
0.00980866
0.0101082
0.0103964
0.0106744
0.0109432
0.0112044
0.0114596
0.011708
0.0119503
0.0121873
0.0124195
0.0126474
0.0128713
0.0130918
0.013309
0.0135234
0.013735
0.0139442
0.014151
0.0143557
0.000154927
0.00050609
0.00130133
0.00217067
0.00299682
0.00375706
0.0044528
0.00508957
0.00567352
0.00621097
0.00670778
0.00716915
0.00759957
0.00800298
0.00838262
0.00874139
0.00908187
0.00940631
0.00971637
0.0100135
0.010299
0.0105741
0.0108397
0.0110974
0.0113487
0.0115931
0.0118313
0.0120639
0.0122915
0.0125145
0.0127334
0.0129485
0.0131602
0.0133688
0.0135745
0.0137774
0.0139778
0.0141758
0.000151109
0.000506886
0.00128163
0.00212695
0.00293404
0.00368383
0.00437445
0.00500843
0.00559083
0.00612726
0.00662328
0.00708398
0.00751379
0.00791645
0.00829519
0.00865283
0.00899188
0.00931449
0.00962244
0.00991722
0.0102001
0.0104723
0.0107347
0.0109889
0.0112363
0.0114766
0.0117104
0.0119384
0.0121611
0.0123789
0.0125924