/*--------------------------------*- C++ -*----------------------------------*\
  =========                 |
  \\      /  F ield         | OpenFOAM: The Open Source CFD Toolbox
   \\    /   O peration     | Website:  https://openfoam.org
    \\  /    A nd           | Version:  9
     \\/     M anipulation  |
\*---------------------------------------------------------------------------*/
FoamFile
{
    format      ascii;
    class       volScalarField;
    location    "86400";
    object      C10H16;
}
// * * * * * * * * * * * * * * * * * * * * * * * * * * * * * * * * * * * * * //

dimensions      [0 0 0 0 0 0 0];

internalField   nonuniform List<scalar> 
15450
(
5.42686e-06
5.4303e-06
5.43468e-06
5.43812e-06
5.44087e-06
5.4477e-06
5.46658e-06
5.51464e-06
5.62339e-06
5.85188e-06
6.10505e-06
6.34016e-06
6.50236e-06
6.57664e-06
6.5926e-06
6.65077e-06
6.78544e-06
6.97891e-06
7.09978e-06
7.11396e-06
7.00721e-06
6.8643e-06
6.59448e-06
6.45968e-06
6.32135e-06
6.2688e-06
6.30866e-06
6.55874e-06
6.67629e-06
6.73334e-06
6.76089e-06
6.86401e-06
7.13748e-06
7.43344e-06
7.51413e-06
7.52866e-06
7.57619e-06
8.26554e-06
5.42493e-06
5.43147e-06
5.44143e-06
5.44777e-06
5.45385e-06
5.46994e-06
5.50266e-06
5.57859e-06
5.71844e-06
5.94931e-06
6.18961e-06
6.32331e-06
6.32896e-06
6.24757e-06
6.14775e-06
6.12427e-06
6.19105e-06
6.37874e-06
6.46868e-06
6.45675e-06
6.28433e-06
6.2307e-06
6.15263e-06
5.9638e-06
5.42149e-06
5.24904e-06
5.21733e-06
5.36149e-06
5.47695e-06
5.23815e-06
4.82884e-06
4.65545e-06
4.8684e-06
5.08685e-06
4.83159e-06
3.79003e-06
3.41175e-06
3.246e-06
5.4218e-06
5.43461e-06
5.45249e-06
5.46515e-06
5.48164e-06
5.51193e-06
5.57618e-06
5.70201e-06
5.88223e-06
6.0614e-06
6.15865e-06
6.12639e-06
5.98755e-06
5.77161e-06
5.60739e-06
5.41311e-06
5.30376e-06
5.30975e-06
5.3139e-06
5.25519e-06
5.20027e-06
5.16316e-06
5.09559e-06
4.88595e-06
4.32879e-06
4.12863e-06
4.05321e-06
4.06334e-06
4.0614e-06
3.90745e-06
3.54005e-06
3.39581e-06
3.36531e-06
3.41395e-06
3.33964e-06
2.97269e-06
2.8171e-06
2.76304e-06
5.41711e-06
5.44078e-06
5.4671e-06
5.4899e-06
5.51979e-06
5.57677e-06
5.66622e-06
5.79743e-06
5.91543e-06
5.98531e-06
5.94657e-06
5.82348e-06
5.4771e-06
5.23231e-06
4.90258e-06
4.57375e-06
4.46607e-06
4.41008e-06
4.38345e-06
4.35062e-06
4.30239e-06
4.26716e-06
4.20354e-06
4.05311e-06
3.74993e-06
3.54915e-06
3.41739e-06
3.36885e-06
3.33265e-06
3.23032e-06
3.06365e-06
2.90984e-06
2.84663e-06
2.82084e-06
2.78174e-06
2.703e-06
2.62276e-06
2.59562e-06
5.40846e-06
5.44462e-06
5.4811e-06
5.51439e-06
5.55054e-06
5.60956e-06
5.6871e-06
5.76965e-06
5.79883e-06
5.77717e-06
5.67334e-06
5.37314e-06
5.06906e-06
4.59239e-06
4.19793e-06
3.9922e-06
3.89953e-06
3.83448e-06
3.79371e-06
3.7674e-06
3.72768e-06
3.69628e-06
3.61228e-06
3.52857e-06
3.33857e-06
3.19684e-06
3.07916e-06
2.99055e-06
2.93199e-06
2.86581e-06
2.77746e-06
2.67662e-06
2.62686e-06
2.59912e-06
2.57373e-06
2.54315e-06
2.51282e-06
2.49217e-06
5.39521e-06
5.44514e-06
5.48325e-06
5.51105e-06
5.54149e-06
5.58462e-06
5.61422e-06
5.60739e-06
5.59579e-06
5.50921e-06
5.24927e-06
4.9799e-06
4.56262e-06
4.0171e-06
3.71792e-06
3.54559e-06
3.46179e-06
3.39014e-06
3.35135e-06
3.30452e-06
3.28015e-06
3.24752e-06
3.2081e-06
3.11883e-06
3.02468e-06
2.8765e-06
2.81574e-06
2.75899e-06
2.6994e-06
2.65794e-06
2.6111e-06
2.54214e-06
2.51267e-06
2.48111e-06
2.46355e-06
2.44576e-06
2.42863e-06
2.41493e-06
5.37384e-06
5.42721e-06
5.45783e-06
5.47324e-06
5.46984e-06
5.45773e-06
5.41611e-06
5.406e-06
5.33683e-06
5.14508e-06
4.94631e-06
4.65663e-06
3.97592e-06
3.56378e-06
3.37071e-06
3.24241e-06
3.16747e-06
3.08472e-06
3.04115e-06
2.99977e-06
2.97472e-06
2.94943e-06
2.90971e-06
2.84656e-06
2.78831e-06
2.70707e-06
2.64723e-06
2.59622e-06
2.55727e-06
2.52228e-06
2.49021e-06
2.45961e-06
2.4316e-06
2.40717e-06
2.39063e-06
2.37735e-06
2.36706e-06
2.35727e-06
5.34289e-06
5.38503e-06
5.40029e-06
5.39422e-06
5.35278e-06
5.25572e-06
5.21789e-06
5.13241e-06
4.94328e-06
4.81542e-06
4.5287e-06
4.00972e-06
3.64544e-06
3.34711e-06
3.15307e-06
3.07097e-06
3.00836e-06
2.93842e-06
2.87142e-06
2.82493e-06
2.77106e-06
2.74216e-06
2.70396e-06
2.66445e-06
2.62348e-06
2.57716e-06
2.52824e-06
2.4896e-06
2.46102e-06
2.43867e-06
2.41633e-06
2.39191e-06
2.37184e-06
2.35674e-06
2.34381e-06
2.3301e-06
2.3218e-06
2.31033e-06
5.29931e-06
5.31433e-06
5.31277e-06
5.25092e-06
5.14857e-06
5.10428e-06
5.01606e-06
4.79944e-06
4.66451e-06
4.46868e-06
4.07316e-06
3.65321e-06
3.32276e-06
3.16181e-06
3.00559e-06
2.93568e-06
2.86907e-06
2.7866e-06
2.73894e-06
2.68196e-06
2.65207e-06
2.61726e-06
2.57839e-06
2.54332e-06
2.51311e-06
2.47917e-06
2.4461e-06
2.42194e-06
2.3932e-06
2.37458e-06
2.35933e-06
2.34469e-06
2.32805e-06
2.31628e-06
2.30494e-06
2.29378e-06
2.28477e-06
2.2749e-06
5.23989e-06
5.23328e-06
5.19494e-06
5.08085e-06
4.9968e-06
4.90509e-06
4.74716e-06
4.51909e-06
4.33615e-06
4.00831e-06
3.67916e-06
3.41181e-06
3.1366e-06
3.0192e-06
2.89653e-06
2.83076e-06
2.75773e-06
2.67154e-06
2.62878e-06
2.57818e-06
2.5505e-06
2.5245e-06
2.48988e-06
2.45612e-06
2.43732e-06
2.40998e-06
2.38422e-06
2.36332e-06
2.34632e-06
2.33364e-06
2.31927e-06
2.30424e-06
2.29212e-06
2.28131e-06
2.27204e-06
2.26119e-06
2.25342e-06
2.24395e-06
5.17502e-06
5.13415e-06
5.05831e-06
4.96882e-06
4.86211e-06
4.64416e-06
4.4379e-06
4.27626e-06
4.02239e-06
3.7182e-06
3.41498e-06
3.20662e-06
3.00082e-06
2.90533e-06
2.80587e-06
2.73384e-06
2.65807e-06
2.58749e-06
2.54902e-06
2.50811e-06
2.48273e-06
2.45211e-06
2.42467e-06
2.4019e-06
2.37669e-06
2.35885e-06
2.34223e-06
2.32634e-06
2.31134e-06
2.29857e-06
2.28495e-06
2.27463e-06
2.2627e-06
2.25145e-06
2.24309e-06
2.23406e-06
2.22652e-06
2.2191e-06
5.11532e-06
5.05663e-06
4.95747e-06
4.84936e-06
4.69673e-06
4.39818e-06
4.24207e-06
4.04551e-06
3.7408e-06
3.46123e-06
3.26421e-06
3.05004e-06
2.89731e-06
2.79048e-06
2.72179e-06
2.65736e-06
2.58747e-06
2.52663e-06
2.49113e-06
2.45442e-06
2.42648e-06
2.40243e-06
2.38174e-06
2.35864e-06
2.34268e-06
2.32508e-06
2.30917e-06
2.29485e-06
2.28042e-06
2.27055e-06
2.2585e-06
2.24795e-06
2.23774e-06
2.22824e-06
2.21991e-06
2.2125e-06
2.20464e-06
2.19844e-06
5.06753e-06
4.9778e-06
4.86967e-06
4.70649e-06
4.45308e-06
4.23957e-06
4.04579e-06
3.83489e-06
3.52911e-06
3.29142e-06
3.09003e-06
2.9546e-06
2.80587e-06
2.73094e-06
2.65188e-06
2.58929e-06
2.53556e-06
2.48386e-06
2.44226e-06
2.41294e-06
2.3848e-06
2.36356e-06
2.34628e-06
2.32679e-06
2.31298e-06
2.29547e-06
2.28097e-06
2.26853e-06
2.25686e-06
2.24717e-06
2.23569e-06
2.22616e-06
2.21675e-06
2.20784e-06
2.20098e-06
2.19315e-06
2.1869e-06
2.18105e-06
5.01193e-06
4.90537e-06
4.76567e-06
4.58258e-06
4.29875e-06
4.06244e-06
3.84149e-06
3.61914e-06
3.36018e-06
3.13907e-06
2.96483e-06
2.84789e-06
2.751e-06
2.66929e-06
2.59533e-06
2.53701e-06
2.48419e-06
2.43678e-06
2.40617e-06
2.37682e-06
2.35605e-06
2.33512e-06
2.31889e-06
2.30013e-06
2.28618e-06
2.27095e-06
2.2594e-06
2.24805e-06
2.23662e-06
2.22691e-06
2.2164e-06
2.20777e-06
2.20017e-06
2.19243e-06
2.18591e-06
2.17879e-06
2.17315e-06
2.16744e-06
4.96213e-06
4.83094e-06
4.68022e-06
4.44252e-06
4.16214e-06
3.93192e-06
3.73518e-06
3.46398e-06
3.20854e-06
3.04831e-06
2.9013e-06
2.7862e-06
2.69672e-06
2.62971e-06
2.55295e-06
2.50348e-06
2.44875e-06
2.41102e-06
2.37767e-06
2.35396e-06
2.3339e-06
2.31199e-06
2.29413e-06
2.27794e-06
2.26275e-06
2.25078e-06
2.24054e-06
2.22977e-06
2.21928e-06
2.21065e-06
2.20247e-06
2.19397e-06
2.18671e-06
2.17926e-06
2.17297e-06
2.16712e-06
2.16107e-06
2.15568e-06
4.91658e-06
4.76752e-06
4.59287e-06
4.32625e-06
4.05806e-06
3.81077e-06
3.5971e-06
3.34934e-06
3.12888e-06
2.97384e-06
2.83992e-06
2.72795e-06
2.6544e-06
2.58466e-06
2.51218e-06
2.46343e-06
2.42223e-06
2.38599e-06
2.3551e-06
2.33042e-06
2.30907e-06
2.2899e-06
2.27499e-06
2.25988e-06
2.24666e-06
2.23405e-06
2.22382e-06
2.21328e-06
2.20566e-06
2.19612e-06
2.18896e-06
2.1814e-06
2.17388e-06
2.16805e-06
2.16251e-06
2.15674e-06
2.15217e-06
2.14663e-06
4.87155e-06
4.69892e-06
4.4845e-06
4.2081e-06
3.95206e-06
3.70283e-06
3.48622e-06
3.24326e-06
3.05489e-06
2.91223e-06
2.78408e-06
2.69123e-06
2.61594e-06
2.55259e-06
2.4853e-06
2.44009e-06
2.39775e-06
2.36293e-06
2.33413e-06
2.31235e-06
2.28978e-06
2.2733e-06
2.25866e-06
2.24342e-06
2.23205e-06
2.21944e-06
2.21111e-06
2.20139e-06
2.19268e-06
2.18551e-06
2.17776e-06
2.17069e-06
2.1638e-06
2.15815e-06
2.15328e-06
2.14821e-06
2.14358e-06
2.13904e-06
4.82856e-06
4.63163e-06
4.39441e-06
4.11812e-06
3.81927e-06
3.59467e-06
3.39595e-06
3.17205e-06
2.98496e-06
2.85501e-06
2.7448e-06
2.64334e-06
2.58117e-06
2.51351e-06
2.45503e-06
2.41577e-06
2.37658e-06
2.34389e-06
2.3161e-06
2.29516e-06
2.27518e-06
2.25919e-06
2.24463e-06
2.23124e-06
2.21923e-06
2.20783e-06
2.1985e-06
2.19001e-06
2.18296e-06
2.17572e-06
2.16835e-06
2.16177e-06
2.15574e-06
2.15e-06
2.14572e-06
2.14076e-06
2.13674e-06
2.1329e-06
4.78408e-06
4.5631e-06
4.31944e-06
4.02345e-06
3.73969e-06
3.52382e-06
3.33015e-06
3.10576e-06
2.92794e-06
2.79956e-06
2.69475e-06
2.61505e-06
2.5499e-06
2.49232e-06
2.43478e-06
2.39577e-06
2.35757e-06
2.32695e-06
2.3042e-06
2.28137e-06
2.26343e-06
2.24681e-06
2.23398e-06
2.22052e-06
2.20928e-06
2.19793e-06
2.18932e-06
2.18057e-06
2.1742e-06
2.16693e-06
2.16032e-06
2.15458e-06
2.14885e-06
2.14389e-06
2.13918e-06
2.13514e-06
2.13141e-06
2.12784e-06
4.74696e-06
4.49167e-06
4.22757e-06
3.95789e-06
3.68215e-06
3.47545e-06
3.24622e-06
3.04966e-06
2.89211e-06
2.76551e-06
2.66367e-06
2.57976e-06
2.51952e-06
2.46815e-06
2.41584e-06
2.37766e-06
2.34199e-06
2.31509e-06
2.28965e-06
2.27117e-06
2.25311e-06
2.23676e-06
2.22275e-06
2.21001e-06
2.19937e-06
2.18973e-06
2.18026e-06
2.1732e-06
2.1664e-06
2.16004e-06
2.15347e-06
2.14832e-06
2.1429e-06
2.13848e-06
2.13443e-06
2.13053e-06
2.12688e-06
2.1237e-06
4.70154e-06
4.43563e-06
4.14917e-06
3.86311e-06
3.61751e-06
3.40581e-06
3.19987e-06
3.00171e-06
2.84474e-06
2.7237e-06
2.63255e-06
2.5567e-06
2.4998e-06
2.44425e-06
2.39612e-06
2.3587e-06
2.32827e-06
2.30262e-06
2.27956e-06
2.26076e-06
2.24245e-06
2.22794e-06
2.21394e-06
2.20135e-06
2.19202e-06
2.18223e-06
2.17371e-06
2.16665e-06
2.16002e-06
2.15381e-06
2.14795e-06
2.14293e-06
2.13815e-06
2.13393e-06
2.1304e-06
2.12671e-06
2.1231e-06
2.12041e-06
4.66082e-06
4.37504e-06
4.09156e-06
3.80319e-06
3.55563e-06
3.36326e-06
3.14005e-06
2.95311e-06
2.81218e-06
2.69664e-06
2.60754e-06
2.53411e-06
2.47404e-06
2.42822e-06
2.38115e-06
2.3451e-06
2.31526e-06
2.29128e-06
2.26991e-06
2.25146e-06
2.23485e-06
2.2196e-06
2.20654e-06
2.1945e-06
2.18491e-06
2.17641e-06
2.1681e-06
2.1608e-06
2.15455e-06
2.14841e-06
2.14322e-06
2.13881e-06
2.13415e-06
2.13031e-06
2.12683e-06
2.12349e-06
2.12032e-06
2.11773e-06
4.63693e-06
4.3154e-06
4.03179e-06
3.75454e-06
3.51708e-06
3.31554e-06
3.10214e-06
2.92103e-06
2.78577e-06
2.67412e-06
2.5896e-06
2.51742e-06
2.46058e-06
2.41457e-06
2.3702e-06
2.33273e-06
2.30494e-06
2.28157e-06
2.261e-06
2.24322e-06
2.22651e-06
2.21225e-06
2.19995e-06
2.18864e-06
2.17953e-06
2.17025e-06
2.16302e-06
2.1559e-06
2.15004e-06
2.14468e-06
2.13934e-06
2.13515e-06
2.13079e-06
2.12719e-06
2.12406e-06
2.12109e-06
2.11819e-06
2.11574e-06
4.56494e-06
4.26917e-06
3.97701e-06
3.71001e-06
3.47571e-06
3.26553e-06
3.06383e-06
2.89206e-06
2.75988e-06
2.65368e-06
2.56595e-06
2.50059e-06
2.44849e-06
2.40073e-06
2.35925e-06
2.32261e-06
2.29591e-06
2.27391e-06
2.25358e-06
2.23576e-06
2.2196e-06
2.20691e-06
2.19403e-06
2.18353e-06
2.17405e-06
2.16559e-06
2.15844e-06
2.15221e-06
2.14616e-06
2.14118e-06
2.13628e-06
2.13189e-06
2.12805e-06
2.12463e-06
2.12186e-06
2.11896e-06
2.1164e-06
2.1143e-06
4.53708e-06
4.20069e-06
3.91486e-06
3.65404e-06
3.43731e-06
3.22418e-06
3.03703e-06
2.86842e-06
2.74061e-06
2.63227e-06
2.55348e-06
2.48748e-06
2.43377e-06
2.39124e-06
2.34958e-06
2.31513e-06
2.28936e-06
2.26687e-06
2.24742e-06
2.22939e-06
2.21375e-06
2.20043e-06
2.18929e-06
2.17859e-06
2.16989e-06
2.16139e-06
2.15424e-06
2.14833e-06
2.14287e-06
2.13806e-06
2.13344e-06
2.12942e-06
2.12596e-06
2.1229e-06
2.11989e-06
2.11746e-06
2.11522e-06
2.11328e-06
4.46974e-06
4.15269e-06
3.86852e-06
3.61496e-06
3.40352e-06
3.19185e-06
3.00339e-06
2.8441e-06
2.71918e-06
2.61711e-06
2.53891e-06
2.47624e-06
2.42227e-06
2.38027e-06
2.34008e-06
2.30766e-06
2.28254e-06
2.26056e-06
2.24124e-06
2.22373e-06
2.20838e-06
2.19544e-06
2.18436e-06
2.17473e-06
2.16645e-06
2.15813e-06
2.15111e-06
2.14541e-06
2.14002e-06
2.13548e-06
2.13125e-06
2.12752e-06
2.12403e-06
2.1212e-06
2.11845e-06
2.11625e-06
2.11427e-06
2.11247e-06
4.44643e-06
4.11902e-06
3.82131e-06
3.57035e-06
3.35983e-06
3.15635e-06
2.97545e-06
2.82708e-06
2.70881e-06
2.60778e-06
2.52873e-06
2.46517e-06
2.4133e-06
2.37218e-06
2.33342e-06
2.30194e-06
2.27703e-06
2.25522e-06
2.23557e-06
2.21856e-06
2.20485e-06
2.1915e-06
2.18043e-06
2.17138e-06
2.16298e-06
2.15536e-06
2.14829e-06
2.14282e-06
2.13779e-06
2.13344e-06
2.12919e-06
2.12576e-06
2.12263e-06
2.11976e-06
2.11742e-06
2.11537e-06
2.11356e-06
2.11194e-06
4.40654e-06
4.06845e-06
3.78287e-06
3.5385e-06
3.33869e-06
3.13454e-06
2.95923e-06
2.80956e-06
2.69322e-06
2.59882e-06
2.51844e-06
2.45611e-06
2.40359e-06
2.36443e-06
2.32689e-06
2.29656e-06
2.2721e-06
2.25098e-06
2.23148e-06
2.21436e-06
2.20082e-06
2.18838e-06
2.17729e-06
2.16833e-06
2.16024e-06
2.15276e-06
2.14612e-06
2.14076e-06
2.13589e-06
2.1317e-06
2.12772e-06
2.12439e-06
2.12136e-06
2.11882e-06
2.11665e-06
2.11478e-06
2.11315e-06
2.11162e-06
4.37445e-06
4.02237e-06
3.75564e-06
3.5135e-06
3.31307e-06
3.11529e-06
2.93894e-06
2.79616e-06
2.68511e-06
2.58948e-06
2.51158e-06
2.44858e-06
2.3978e-06
2.3582e-06
2.32155e-06
2.29292e-06
2.26832e-06
2.24663e-06
2.22767e-06
2.21136e-06
2.19735e-06
2.18566e-06
2.17508e-06
2.16607e-06
2.15803e-06
2.15074e-06
2.14432e-06
2.13919e-06
2.13439e-06
2.13013e-06
2.12666e-06
2.12337e-06
2.12055e-06
2.11816e-06
2.11607e-06
2.11436e-06
2.11288e-06
2.11153e-06
4.3432e-06
3.98509e-06
3.71758e-06
3.49601e-06
3.28726e-06
3.09417e-06
2.92599e-06
2.78601e-06
2.67614e-06
2.58464e-06
2.50616e-06
2.4436e-06
2.39244e-06
2.35262e-06
2.31817e-06
2.28926e-06
2.2645e-06
2.24338e-06
2.22435e-06
2.20896e-06
2.19458e-06
2.18311e-06
2.17293e-06
2.16392e-06
2.15624e-06
2.1491e-06
2.14291e-06
2.13769e-06
2.13308e-06
2.12897e-06
2.12559e-06
2.12266e-06
2.11994e-06
2.11776e-06
2.1158e-06
2.11415e-06
2.11276e-06
2.11156e-06
4.29232e-06
3.9514e-06
3.67295e-06
3.45361e-06
3.26014e-06
3.07527e-06
2.91321e-06
2.78077e-06
2.66883e-06
2.57819e-06
2.50047e-06
2.44003e-06
2.38919e-06
2.34837e-06
2.31504e-06
2.28711e-06
2.26168e-06
2.24008e-06
2.22248e-06
2.20648e-06
2.19296e-06
2.18109e-06
2.1711e-06
2.16205e-06
2.15474e-06
2.14779e-06
2.14177e-06
2.13652e-06
2.13219e-06
2.12833e-06
2.12487e-06
2.1221e-06
2.11965e-06
2.11742e-06
2.11566e-06
2.11411e-06
2.1128e-06
2.11172e-06
4.26516e-06
3.92448e-06
3.64944e-06
3.43276e-06
3.24176e-06
3.05984e-06
2.90549e-06
2.77334e-06
2.66297e-06
2.57261e-06
2.49655e-06
2.43755e-06
2.38646e-06
2.34541e-06
2.31278e-06
2.28466e-06
2.25979e-06
2.23771e-06
2.22019e-06
2.20496e-06
2.19152e-06
2.17983e-06
2.16963e-06
2.16086e-06
2.15341e-06
2.14682e-06
2.14087e-06
2.13577e-06
2.13159e-06
2.12782e-06
2.12445e-06
2.12177e-06
2.11941e-06
2.11732e-06
2.11566e-06
2.11418e-06
2.11298e-06
2.11201e-06
4.23798e-06
3.88309e-06
3.62658e-06
3.41883e-06
3.22203e-06
3.0468e-06
2.89733e-06
2.76625e-06
2.65842e-06
2.56939e-06
2.49442e-06
2.43511e-06
2.38419e-06
2.34422e-06
2.31127e-06
2.28322e-06
2.25792e-06
2.23675e-06
2.21876e-06
2.2036e-06
2.19001e-06
2.17872e-06
2.16866e-06
2.16004e-06
2.15265e-06
2.14612e-06
2.14031e-06
2.13529e-06
2.13101e-06
2.12753e-06
2.12429e-06
2.12158e-06
2.11931e-06
2.11733e-06
2.11575e-06
2.11436e-06
2.11325e-06
2.11235e-06
4.21688e-06
3.85623e-06
3.60167e-06
3.3977e-06
3.20297e-06
3.03444e-06
2.88756e-06
2.7606e-06
2.65596e-06
2.56708e-06
2.49316e-06
2.43386e-06
2.38307e-06
2.34292e-06
2.30982e-06
2.28176e-06
2.25711e-06
2.23618e-06
2.21764e-06
2.20275e-06
2.18921e-06
2.17774e-06
2.16816e-06
2.15956e-06
2.15212e-06
2.14555e-06
2.13982e-06
2.13508e-06
2.13084e-06
2.1273e-06
2.12421e-06
2.12154e-06
2.11937e-06
2.11749e-06
2.11594e-06
2.11466e-06
2.11363e-06
2.11281e-06
4.17505e-06
3.82859e-06
3.57246e-06
3.37386e-06
3.18882e-06
3.0246e-06
2.88108e-06
2.75647e-06
2.65295e-06
2.565e-06
2.49297e-06
2.43318e-06
2.38287e-06
2.34237e-06
2.30911e-06
2.2812e-06
2.25647e-06
2.23548e-06
2.21724e-06
2.20175e-06
2.18892e-06
2.17748e-06
2.16766e-06
2.15909e-06
2.15188e-06
2.14529e-06
2.1397e-06
2.13486e-06
2.13073e-06
2.12733e-06
2.12432e-06
2.12173e-06
2.11955e-06
2.11771e-06
2.11622e-06
2.11503e-06
2.11408e-06
2.11331e-06
4.14453e-06
3.80181e-06
3.55441e-06
3.36123e-06
3.17812e-06
3.01655e-06
2.87565e-06
2.75327e-06
2.65056e-06
2.56434e-06
2.49235e-06
2.43382e-06
2.3832e-06
2.34254e-06
2.30893e-06
2.28113e-06
2.25607e-06
2.2355e-06
2.21712e-06
2.20169e-06
2.18868e-06
2.17735e-06
2.16746e-06
2.15889e-06
2.15182e-06
2.1452e-06
2.13978e-06
2.13493e-06
2.13079e-06
2.12744e-06
2.12453e-06
2.12207e-06
2.11989e-06
2.11809e-06
2.11665e-06
2.11549e-06
2.11456e-06
2.11386e-06
4.11989e-06
3.77744e-06
3.53918e-06
3.34173e-06
3.16508e-06
3.00957e-06
2.87091e-06
2.75111e-06
2.64943e-06
2.56412e-06
2.49211e-06
2.43454e-06
2.3841e-06
2.34303e-06
2.30929e-06
2.28117e-06
2.25667e-06
2.23563e-06
2.21713e-06
2.20209e-06
2.18887e-06
2.17735e-06
2.16757e-06
2.15895e-06
2.15195e-06
2.14541e-06
2.13989e-06
2.13518e-06
2.13105e-06
2.12773e-06
2.12487e-06
2.12245e-06
2.12032e-06
2.11857e-06
2.11715e-06
2.11602e-06
2.11512e-06
2.11449e-06
4.09898e-06
3.75607e-06
3.52305e-06
3.32876e-06
3.15169e-06
3.00299e-06
2.86612e-06
2.74872e-06
2.64889e-06
2.56432e-06
2.49266e-06
2.43533e-06
2.38475e-06
2.34433e-06
2.31022e-06
2.28184e-06
2.25723e-06
2.23627e-06
2.21764e-06
2.20263e-06
2.18931e-06
2.17767e-06
2.16786e-06
2.15942e-06
2.15227e-06
2.1458e-06
2.14035e-06
2.13558e-06
2.13153e-06
2.12819e-06
2.12532e-06
2.12291e-06
2.12081e-06
2.11907e-06
2.11771e-06
2.1166e-06
2.11574e-06
2.11512e-06
4.07722e-06
3.73638e-06
3.49827e-06
3.31633e-06
3.14333e-06
2.99364e-06
2.86105e-06
2.74764e-06
2.64871e-06
2.56495e-06
2.49407e-06
2.43693e-06
2.38651e-06
2.34604e-06
2.31158e-06
2.28319e-06
2.25807e-06
2.23719e-06
2.21868e-06
2.20352e-06
2.19e-06
2.17831e-06
2.16867e-06
2.16011e-06
2.15269e-06
2.14646e-06
2.14091e-06
2.13612e-06
2.1322e-06
2.12878e-06
2.12588e-06
2.12349e-06
2.12145e-06
2.11972e-06
2.11836e-06
2.11724e-06
2.11641e-06
2.11579e-06
4.05698e-06
3.71556e-06
3.4839e-06
3.30322e-06
3.1333e-06
2.98716e-06
2.85851e-06
2.74609e-06
2.64886e-06
2.56615e-06
2.49611e-06
2.43831e-06
2.38815e-06
2.34783e-06
2.31333e-06
2.28455e-06
2.25968e-06
2.238e-06
2.21984e-06
2.20448e-06
2.19098e-06
2.17925e-06
2.16946e-06
2.1609e-06
2.15353e-06
2.1472e-06
2.14162e-06
2.13682e-06
2.13289e-06
2.12944e-06
2.12654e-06
2.12416e-06
2.1221e-06
2.1204e-06
2.11903e-06
2.11796e-06
2.11714e-06
2.11654e-06
4.0272e-06
3.6971e-06
3.47266e-06
3.28778e-06
3.12427e-06
2.98256e-06
2.85498e-06
2.74563e-06
2.64941e-06
2.56784e-06
2.49848e-06
2.44029e-06
2.39073e-06
2.3499e-06
2.31525e-06
2.2862e-06
2.26149e-06
2.23989e-06
2.22145e-06
2.20555e-06
2.19224e-06
2.18046e-06
2.17057e-06
2.1619e-06
2.1546e-06
2.14804e-06
2.14253e-06
2.13773e-06
2.13372e-06
2.13026e-06
2.12737e-06
2.12492e-06
2.12286e-06
2.12116e-06
2.11982e-06
2.11869e-06
2.11788e-06
2.11729e-06
4.01141e-06
3.68414e-06
3.45733e-06
3.27621e-06
3.11654e-06
2.97708e-06
2.85299e-06
2.7444e-06
2.64997e-06
2.56975e-06
2.5003e-06
2.44268e-06
2.39322e-06
2.35261e-06
2.31769e-06
2.28858e-06
2.26331e-06
2.24189e-06
2.22317e-06
2.20726e-06
2.19359e-06
2.18181e-06
2.17179e-06
2.1631e-06
2.15558e-06
2.14911e-06
2.14347e-06
2.13869e-06
2.13468e-06
2.13118e-06
2.12825e-06
2.12576e-06
2.12368e-06
2.12198e-06
2.12062e-06
2.11955e-06
2.11871e-06
2.11809e-06
3.99054e-06
3.6633e-06
3.443e-06
3.2627e-06
3.1092e-06
2.971e-06
2.85052e-06
2.7435e-06
2.65167e-06
2.57171e-06
2.50383e-06
2.44578e-06
2.39634e-06
2.35552e-06
2.32075e-06
2.29109e-06
2.26574e-06
2.244e-06
2.2251e-06
2.20927e-06
2.1954e-06
2.1835e-06
2.17321e-06
2.16451e-06
2.15686e-06
2.15035e-06
2.14475e-06
2.13996e-06
2.13579e-06
2.13221e-06
2.12927e-06
2.12674e-06
2.12467e-06
2.12297e-06
2.12157e-06
2.12043e-06
2.11958e-06
2.11893e-06
3.97266e-06
3.64965e-06
3.42856e-06
3.25361e-06
3.10171e-06
2.96739e-06
2.84843e-06
2.7438e-06
2.65341e-06
2.57461e-06
2.5069e-06
2.44956e-06
2.40076e-06
2.35887e-06
2.3238e-06
2.29396e-06
2.26848e-06
2.24692e-06
2.22769e-06
2.21157e-06
2.19759e-06
2.18546e-06
2.17516e-06
2.16626e-06
2.15855e-06
2.1519e-06
2.14617e-06
2.14128e-06
2.13712e-06
2.13352e-06
2.13046e-06
2.12791e-06
2.12582e-06
2.12407e-06
2.12263e-06
2.12144e-06
2.12049e-06
2.11983e-06
3.95746e-06
3.63607e-06
3.41786e-06
3.24242e-06
3.09511e-06
2.96377e-06
2.84721e-06
2.74407e-06
2.65465e-06
2.57674e-06
2.50994e-06
2.45289e-06
2.40383e-06
2.36196e-06
2.32685e-06
2.29716e-06
2.27159e-06
2.24965e-06
2.23062e-06
2.21394e-06
2.19983e-06
2.18761e-06
2.17698e-06
2.16793e-06
2.1602e-06
2.15344e-06
2.14773e-06
2.14273e-06
2.13845e-06
2.1348e-06
2.1317e-06
2.12916e-06
2.12695e-06
2.12515e-06
2.12365e-06
2.12244e-06
2.12149e-06
2.1208e-06
3.93232e-06
3.62038e-06
3.40255e-06
3.23496e-06
3.08936e-06
2.95944e-06
2.84576e-06
2.74474e-06
2.65672e-06
2.58002e-06
2.5133e-06
2.4566e-06
2.40824e-06
2.36628e-06
2.33074e-06
2.30091e-06
2.27486e-06
2.25263e-06
2.23334e-06
2.21656e-06
2.20232e-06
2.19007e-06
2.1794e-06
2.17025e-06
2.16232e-06
2.15544e-06
2.14946e-06
2.14438e-06
2.14002e-06
2.13638e-06
2.1332e-06
2.13047e-06
2.12818e-06
2.12632e-06
2.12477e-06
2.12354e-06
2.12258e-06
2.12182e-06
3.91609e-06
3.59825e-06
3.39175e-06
3.22473e-06
3.08286e-06
2.95656e-06
2.84477e-06
2.74584e-06
2.65893e-06
2.58313e-06
2.51741e-06
2.46067e-06
2.41251e-06
2.37071e-06
2.33499e-06
2.30451e-06
2.27823e-06
2.25581e-06
2.23634e-06
2.21959e-06
2.20491e-06
2.19246e-06
2.18182e-06
2.17242e-06
2.16441e-06
2.15741e-06
2.15138e-06
2.14616e-06
2.14171e-06
2.13792e-06
2.13468e-06
2.1319e-06
2.12957e-06
2.12762e-06
2.12602e-06
2.12473e-06
2.12374e-06
2.12295e-06
3.89265e-06
3.58763e-06
3.38323e-06
3.21843e-06
3.0774e-06
2.95412e-06
2.84416e-06
2.7467e-06
2.66117e-06
2.58633e-06
2.52118e-06
2.46448e-06
2.41654e-06
2.37458e-06
2.33887e-06
2.30848e-06
2.28229e-06
2.25914e-06
2.23957e-06
2.22283e-06
2.20828e-06
2.19558e-06
2.18455e-06
2.17499e-06
2.16668e-06
2.15953e-06
2.15332e-06
2.14805e-06
2.14349e-06
2.13957e-06
2.13626e-06
2.13342e-06
2.13101e-06
2.12904e-06
2.1274e-06
2.12599e-06
2.12495e-06
2.12409e-06
3.87664e-06
3.57774e-06
3.3691e-06
3.20849e-06
3.07237e-06
2.95109e-06
2.84381e-06
2.74827e-06
2.66352e-06
2.58974e-06
2.52529e-06
2.46966e-06
2.42101e-06
2.37994e-06
2.34398e-06
2.31294e-06
2.28633e-06
2.26358e-06
2.24371e-06
2.22632e-06
2.21136e-06
2.19848e-06
2.18722e-06
2.17754e-06
2.16915e-06
2.16181e-06
2.15559e-06
2.15012e-06
2.14541e-06
2.14146e-06
2.138e-06
2.13508e-06
2.13263e-06
2.13056e-06
2.12886e-06
2.12744e-06
2.12631e-06
2.12541e-06
3.86397e-06
3.56734e-06
3.36211e-06
3.20264e-06
3.06853e-06
2.94949e-06
2.84389e-06
2.75025e-06
2.66738e-06
2.59419e-06
2.53027e-06
2.4748e-06
2.42676e-06
2.38477e-06
2.3487e-06
2.31749e-06
2.29042e-06
2.26739e-06
2.24746e-06
2.23001e-06
2.21496e-06
2.20183e-06
2.19053e-06
2.18064e-06
2.1721e-06
2.16472e-06
2.15818e-06
2.15261e-06
2.14776e-06
2.14365e-06
2.14008e-06
2.13699e-06
2.13451e-06
2.13233e-06
2.1305e-06
2.12903e-06
2.12778e-06
2.12683e-06
3.85039e-06
3.55518e-06
3.35008e-06
3.19762e-06
3.06486e-06
2.94782e-06
2.84413e-06
2.75203e-06
2.67026e-06
2.59796e-06
2.53418e-06
2.47935e-06
2.43169e-06
2.38982e-06
2.35364e-06
2.32231e-06
2.2952e-06
2.27216e-06
2.25161e-06
2.23384e-06
2.21872e-06
2.20541e-06
2.19384e-06
2.1837e-06
2.17513e-06
2.16752e-06
2.16096e-06
2.1552e-06
2.15014e-06
2.14578e-06
2.14216e-06
2.13904e-06
2.13638e-06
2.13412e-06
2.13221e-06
2.13062e-06
2.12932e-06
2.12828e-06
3.83626e-06
3.54456e-06
3.34388e-06
3.19041e-06
3.0606e-06
2.94666e-06
2.84464e-06
2.75384e-06
2.67345e-06
2.60201e-06
2.53918e-06
2.48416e-06
2.43686e-06
2.39516e-06
2.35858e-06
2.3274e-06
2.30069e-06
2.27693e-06
2.2563e-06
2.23859e-06
2.22286e-06
2.20917e-06
2.19754e-06
2.18748e-06
2.17832e-06
2.17052e-06
2.16377e-06
2.15789e-06
2.15285e-06
2.1483e-06
2.14446e-06
2.14119e-06
2.13841e-06
2.13604e-06
2.13402e-06
2.13234e-06
2.13097e-06
2.12986e-06
3.8087e-06
3.52799e-06
3.33202e-06
3.1847e-06
3.0575e-06
2.94552e-06
2.8459e-06
2.75651e-06
2.67702e-06
2.60641e-06
2.54463e-06
2.4906e-06
2.44266e-06
2.40123e-06
2.36539e-06
2.33349e-06
2.30593e-06
2.28196e-06
2.26119e-06
2.24327e-06
2.22765e-06
2.2138e-06
2.20131e-06
2.19099e-06
2.18161e-06
2.17363e-06
2.16682e-06
2.1608e-06
2.15557e-06
2.15103e-06
2.14693e-06
2.14353e-06
2.1406e-06
2.13813e-06
2.13599e-06
2.1342e-06
2.13275e-06
2.13156e-06
3.79483e-06
3.51934e-06
3.32557e-06
3.18019e-06
3.05459e-06
2.94471e-06
2.84704e-06
2.75944e-06
2.68068e-06
2.61142e-06
2.54971e-06
2.49628e-06
2.44891e-06
2.40721e-06
2.3713e-06
2.33933e-06
2.31154e-06
2.28777e-06
2.26651e-06
2.24812e-06
2.23205e-06
2.2182e-06
2.2059e-06
2.19505e-06
2.18564e-06
2.17746e-06
2.17019e-06
2.16397e-06
2.15846e-06
2.15377e-06
2.14954e-06
2.146e-06
2.14293e-06
2.14039e-06
2.13812e-06
2.1363e-06
2.1347e-06
2.1335e-06
3.78239e-06
3.51085e-06
3.31878e-06
3.1752e-06
3.05207e-06
2.94408e-06
2.84843e-06
2.7623e-06
2.68529e-06
2.61695e-06
2.55637e-06
2.50237e-06
2.45556e-06
2.41353e-06
2.3772e-06
2.34533e-06
2.31719e-06
2.29346e-06
2.27213e-06
2.25368e-06
2.23755e-06
2.22295e-06
2.2103e-06
2.19929e-06
2.18958e-06
2.18109e-06
2.17374e-06
2.16738e-06
2.16173e-06
2.1568e-06
2.15266e-06
2.14897e-06
2.14572e-06
2.14296e-06
2.14064e-06
2.13862e-06
2.13699e-06
2.13558e-06
3.77285e-06
3.50107e-06
3.31313e-06
3.17077e-06
3.04981e-06
2.94406e-06
2.85089e-06
2.76659e-06
2.69063e-06
2.6221e-06
2.56321e-06
2.50919e-06
2.46236e-06
2.4207e-06
2.38466e-06
2.35205e-06
2.32392e-06
2.29958e-06
2.27816e-06
2.25972e-06
2.24297e-06
2.22814e-06
2.21519e-06
2.20382e-06
2.19389e-06
2.18512e-06
2.17749e-06
2.17104e-06
2.16518e-06
2.16004e-06
2.15572e-06
2.15196e-06
2.14864e-06
2.14572e-06
2.14323e-06
2.1412e-06
2.13934e-06
2.13783e-06
3.75231e-06
3.48962e-06
3.30515e-06
3.16676e-06
3.0482e-06
2.94459e-06
2.85256e-06
2.77054e-06
2.69542e-06
2.62881e-06
2.56925e-06
2.5159e-06
2.46947e-06
2.42815e-06
2.3914e-06
2.35851e-06
2.33034e-06
2.30598e-06
2.28432e-06
2.26551e-06
2.2488e-06
2.23359e-06
2.22032e-06
2.20861e-06
2.19854e-06
2.18934e-06
2.18186e-06
2.1749e-06
2.16894e-06
2.16374e-06
2.15915e-06
2.1552e-06
2.15172e-06
2.14869e-06
2.14604e-06
2.14381e-06
2.14192e-06
2.14026e-06
3.74122e-06
3.47873e-06
3.29961e-06
3.16351e-06
3.04712e-06
2.94507e-06
2.85553e-06
2.77402e-06
2.70056e-06
2.63418e-06
2.57575e-06
2.52301e-06
2.47643e-06
2.43486e-06
2.39867e-06
2.36649e-06
2.33724e-06
2.31257e-06
2.29081e-06
2.27173e-06
2.25489e-06
2.23945e-06
2.22577e-06
2.21381e-06
2.20343e-06
2.19437e-06
2.18643e-06
2.17928e-06
2.17296e-06
2.16751e-06
2.16283e-06
2.15873e-06
2.15509e-06
2.15191e-06
2.14912e-06
2.14671e-06
2.1447e-06
2.14304e-06
3.72551e-06
3.47037e-06
3.29545e-06
3.16092e-06
3.04649e-06
2.94646e-06
2.85749e-06
2.77852e-06
2.70564e-06
2.64054e-06
2.58177e-06
2.52963e-06
2.48359e-06
2.4425e-06
2.40613e-06
2.3732e-06
2.34546e-06
2.3195e-06
2.29744e-06
2.27825e-06
2.26123e-06
2.24557e-06
2.23156e-06
2.2197e-06
2.20854e-06
2.19918e-06
2.19127e-06
2.18377e-06
2.17722e-06
2.17149e-06
2.1668e-06
2.16256e-06
2.15876e-06
2.15539e-06
2.15247e-06
2.15018e-06
2.14806e-06
2.14629e-06
3.71425e-06
3.4658e-06
3.29204e-06
3.15885e-06
3.04576e-06
2.94872e-06
2.86135e-06
2.78274e-06
2.71073e-06
2.64775e-06
2.58977e-06
2.538e-06
2.49323e-06
2.45047e-06
2.41415e-06
2.38202e-06
2.35328e-06
2.32679e-06
2.30509e-06
2.28531e-06
2.26771e-06
2.25196e-06
2.23775e-06
2.22537e-06
2.21468e-06
2.20491e-06
2.1966e-06
2.18892e-06
2.18222e-06
2.17625e-06
2.17113e-06
2.16666e-06
2.16278e-06
2.15921e-06
2.15637e-06
2.1538e-06
2.15152e-06
2.14964e-06
3.70039e-06
3.45905e-06
3.28871e-06
3.15714e-06
3.04601e-06
2.94973e-06
2.86515e-06
2.78831e-06
2.71654e-06
2.65399e-06
2.59691e-06
2.5456e-06
2.50101e-06
2.4595e-06
2.42324e-06
2.39047e-06
2.36128e-06
2.33524e-06
2.31248e-06
2.29301e-06
2.275e-06
2.25887e-06
2.24444e-06
2.23223e-06
2.22091e-06
2.21087e-06
2.2022e-06
2.19431e-06
2.18772e-06
2.18151e-06
2.17608e-06
2.17154e-06
2.16725e-06
2.16357e-06
2.16038e-06
2.15769e-06
2.15534e-06
2.15325e-06
3.68899e-06
3.45217e-06
3.28405e-06
3.15516e-06
3.04683e-06
2.95291e-06
2.86826e-06
2.79352e-06
2.7248e-06
2.66178e-06
2.60608e-06
2.55554e-06
2.50909e-06
2.46954e-06
2.43326e-06
2.39955e-06
2.36968e-06
2.34371e-06
2.32101e-06
2.30142e-06
2.28263e-06
2.26688e-06
2.25148e-06
2.23946e-06
2.2276e-06
2.2175e-06
2.20852e-06
2.20067e-06
2.19317e-06
2.18722e-06
2.18171e-06
2.17662e-06
2.17228e-06
2.1685e-06
2.16516e-06
2.16241e-06
2.15978e-06
2.15759e-06
3.67653e-06
3.44291e-06
3.28048e-06
3.15421e-06
3.0479e-06
2.95546e-06
2.87278e-06
2.7989e-06
2.73084e-06
2.67035e-06
2.61442e-06
2.5643e-06
2.51884e-06
2.47776e-06
2.44242e-06
2.4089e-06
2.37869e-06
2.35246e-06
2.32993e-06
2.31005e-06
2.29126e-06
2.27444e-06
2.25959e-06
2.2462e-06
2.23473e-06
2.2246e-06
2.2149e-06
2.20676e-06
2.19935e-06
2.19282e-06
2.1873e-06
2.18199e-06
2.17767e-06
2.17347e-06
2.16994e-06
2.16715e-06
2.16446e-06
2.16206e-06
3.66527e-06
3.43544e-06
3.27809e-06
3.1542e-06
3.04931e-06
2.95835e-06
2.87777e-06
2.80448e-06
2.73822e-06
2.67788e-06
2.6225e-06
2.57349e-06
2.52931e-06
2.48744e-06
2.45204e-06
2.41861e-06
2.38891e-06
2.36248e-06
2.33925e-06
2.31903e-06
2.3007e-06
2.28398e-06
2.26825e-06
2.25492e-06
2.24244e-06
2.23207e-06
2.22248e-06
2.21373e-06
2.20611e-06
2.19948e-06
2.19337e-06
2.18824e-06
2.18374e-06
2.17931e-06
2.17572e-06
2.17244e-06
2.16953e-06
2.16693e-06
3.65793e-06
3.43245e-06
3.27751e-06
3.15433e-06
3.05061e-06
2.9618e-06
2.88284e-06
2.81224e-06
2.74591e-06
2.68578e-06
2.63232e-06
2.58277e-06
2.53871e-06
2.4974e-06
2.46244e-06
2.42878e-06
2.39908e-06
2.37141e-06
2.34901e-06
2.32832e-06
2.31024e-06
2.29293e-06
2.27688e-06
2.26314e-06
2.25074e-06
2.23963e-06
2.22963e-06
2.22109e-06
2.21347e-06
2.20605e-06
2.20014e-06
2.19481e-06
2.18978e-06
2.18545e-06