/*--------------------------------*- C++ -*----------------------------------*\
  =========                 |
  \\      /  F ield         | OpenFOAM: The Open Source CFD Toolbox
   \\    /   O peration     | Website:  https://openfoam.org
    \\  /    A nd           | Version:  9
     \\/     M anipulation  |
\*---------------------------------------------------------------------------*/
FoamFile
{
    format      ascii;
    class       volScalarField;
    location    "86400";
    object      Cprod1;
}
// * * * * * * * * * * * * * * * * * * * * * * * * * * * * * * * * * * * * * //

dimensions      [0 0 0 0 0 0 0];

internalField   nonuniform List<scalar> 
15450
(
3.22797e-07
3.23807e-07
3.26202e-07
3.28808e-07
3.3143e-07
3.35496e-07
3.38685e-07
3.38895e-07
3.32468e-07
3.1308e-07
2.91166e-07
2.74237e-07
2.6463e-07
2.59552e-07
2.56747e-07
2.553e-07
2.54141e-07
2.53086e-07
2.52219e-07
2.51695e-07
2.51201e-07
2.50908e-07
2.50557e-07
2.50424e-07
2.50242e-07
2.50025e-07
2.49628e-07
2.48373e-07
2.47708e-07
2.47203e-07
2.46837e-07
2.46238e-07
2.45097e-07
2.43841e-07
2.43313e-07
2.43004e-07
2.42603e-07
2.40247e-07
3.16657e-07
3.18234e-07
3.21956e-07
3.25334e-07
3.28758e-07
3.33044e-07
3.34707e-07
3.31379e-07
3.20334e-07
3.00253e-07
2.78736e-07
2.66988e-07
2.61075e-07
2.57601e-07
2.55969e-07
2.55065e-07
2.54292e-07
2.53334e-07
2.52814e-07
2.52417e-07
2.51961e-07
2.51765e-07
2.51552e-07
2.51654e-07
2.52388e-07
2.52675e-07
2.52437e-07
2.51677e-07
2.5101e-07
2.51487e-07
2.52487e-07
2.5275e-07
2.51691e-07
2.50729e-07
2.51227e-07
2.54072e-07
2.55028e-07
2.5509e-07
3.1129e-07
3.13777e-07
3.18123e-07
3.21977e-07
3.2573e-07
3.27722e-07
3.24783e-07
3.13592e-07
2.9431e-07
2.77503e-07
2.69063e-07
2.62402e-07
2.59399e-07
2.57348e-07
2.56369e-07
2.56087e-07
2.55841e-07
2.5548e-07
2.55157e-07
2.54831e-07
2.54713e-07
2.54547e-07
2.54483e-07
2.54874e-07
2.56061e-07
2.56564e-07
2.566e-07
2.56322e-07
2.56102e-07
2.56475e-07
2.57611e-07
2.58026e-07
2.5794e-07
2.57325e-07
2.57422e-07
2.58484e-07
2.58902e-07
2.58826e-07
3.07426e-07
3.09942e-07
3.14115e-07
3.17837e-07
3.19742e-07
3.1622e-07
3.04831e-07
2.88226e-07
2.75809e-07
2.69427e-07
2.64071e-07
2.61122e-07
2.58855e-07
2.58095e-07
2.5801e-07
2.58149e-07
2.58144e-07
2.58008e-07
2.57788e-07
2.57629e-07
2.57523e-07
2.57504e-07
2.57541e-07
2.57875e-07
2.58748e-07
2.59342e-07
2.59718e-07
2.59742e-07
2.59705e-07
2.60005e-07
2.60645e-07
2.61277e-07
2.61453e-07
2.6138e-07
2.61363e-07
2.61541e-07
2.61765e-07
2.6173e-07
3.04326e-07
3.07183e-07
3.1035e-07
3.11433e-07
3.08629e-07
2.99613e-07
2.87268e-07
2.76422e-07
2.69129e-07
2.64992e-07
2.62369e-07
2.60468e-07
2.5959e-07
2.59594e-07
2.59938e-07
2.60173e-07
2.60268e-07
2.6026e-07
2.60129e-07
2.60052e-07
2.60049e-07
2.60044e-07
2.60217e-07
2.6045e-07
2.61025e-07
2.61571e-07
2.62077e-07
2.62459e-07
2.62602e-07
2.62892e-07
2.63331e-07
2.63891e-07
2.64116e-07
2.64153e-07
2.64175e-07
2.64228e-07
2.64298e-07
2.64318e-07
3.01604e-07
3.04426e-07
3.05711e-07
3.04298e-07
2.9851e-07
2.87512e-07
2.78896e-07
2.70001e-07
2.65667e-07
2.63464e-07
2.6156e-07
2.60913e-07
2.60859e-07
2.61395e-07
2.61943e-07
2.62364e-07
2.62538e-07
2.62677e-07
2.6267e-07
2.6268e-07
2.62647e-07
2.62698e-07
2.62758e-07
2.63126e-07
2.63548e-07
2.64237e-07
2.64517e-07
2.64834e-07
2.65174e-07
2.65389e-07
2.65664e-07
2.66107e-07
2.66301e-07
2.6653e-07
2.66598e-07
2.66665e-07
2.66735e-07
2.66776e-07
2.98655e-07
3.00447e-07
3.00371e-07
2.97735e-07
2.89234e-07
2.78513e-07
2.71386e-07
2.67098e-07
2.64397e-07
2.62683e-07
2.61832e-07
2.61719e-07
2.62505e-07
2.63356e-07
2.63858e-07
2.64298e-07
2.64559e-07
2.6481e-07
2.64948e-07
2.65025e-07
2.65054e-07
2.65106e-07
2.65255e-07
2.65522e-07
2.65847e-07
2.66393e-07
2.66822e-07
2.67127e-07
2.67415e-07
2.67711e-07
2.67973e-07
2.68179e-07
2.68461e-07
2.68698e-07
2.68841e-07
2.68923e-07
2.6896e-07
2.68974e-07
2.96184e-07
2.96584e-07
2.95123e-07
2.90394e-07
2.82605e-07
2.72887e-07
2.68864e-07
2.65783e-07
2.6374e-07
2.62919e-07
2.62825e-07
2.63284e-07
2.639e-07
2.64614e-07
2.6535e-07
2.65628e-07
2.65836e-07
2.66153e-07
2.66508e-07
2.66756e-07
2.67187e-07
2.67392e-07
2.67611e-07
2.67795e-07
2.68069e-07
2.68402e-07
2.68881e-07
2.69238e-07
2.69521e-07
2.69725e-07
2.6995e-07
2.70253e-07
2.70458e-07
2.70613e-07
2.70752e-07
2.70904e-07
2.70984e-07
2.71077e-07
2.93669e-07
2.92562e-07
2.90311e-07
2.83792e-07
2.75775e-07
2.70978e-07
2.67851e-07
2.65141e-07
2.63969e-07
2.6371e-07
2.63925e-07
2.64671e-07
2.6552e-07
2.66036e-07
2.66638e-07
2.66928e-07
2.67282e-07
2.67745e-07
2.68085e-07
2.68546e-07
2.68805e-07
2.6917e-07
2.69547e-07
2.69832e-07
2.70126e-07
2.70438e-07
2.70776e-07
2.71096e-07
2.71503e-07
2.71748e-07
2.71928e-07
2.72078e-07
2.72264e-07
2.72424e-07
2.72598e-07
2.72782e-07
2.72923e-07
2.73039e-07
2.91036e-07
2.89154e-07
2.85709e-07
2.78725e-07
2.73615e-07
2.69892e-07
2.67066e-07
2.65327e-07
2.64838e-07
2.64956e-07
2.65376e-07
2.66015e-07
2.66844e-07
2.67274e-07
2.67805e-07
2.6816e-07
2.68656e-07
2.69343e-07
2.69726e-07
2.70265e-07
2.70568e-07
2.7084e-07
2.71305e-07
2.71743e-07
2.71951e-07
2.72326e-07
2.72716e-07
2.73014e-07
2.73237e-07
2.73432e-07
2.73667e-07
2.73917e-07
2.7412e-07
2.74323e-07
2.74498e-07
2.74697e-07
2.7485e-07
2.75055e-07
2.88849e-07
2.86e-07
2.81698e-07
2.76693e-07
2.72788e-07
2.68758e-07
2.67024e-07
2.65896e-07
2.65814e-07
2.66117e-07
2.66772e-07
2.67343e-07
2.68058e-07
2.68463e-07
2.68986e-07
2.69513e-07
2.70158e-07
2.70792e-07
2.71223e-07
2.71677e-07
2.72051e-07
2.72498e-07
2.72949e-07
2.73332e-07
2.73766e-07
2.74049e-07
2.74304e-07
2.74588e-07
2.74854e-07
2.75119e-07
2.75419e-07
2.7562e-07
2.75915e-07
2.76197e-07
2.76411e-07
2.76616e-07
2.76801e-07
2.7699e-07
2.87158e-07
2.8398e-07
2.79652e-07
2.75568e-07
2.72077e-07
2.68469e-07
2.67226e-07
2.66696e-07
2.66767e-07
2.67264e-07
2.67804e-07
2.68609e-07
2.69234e-07
2.69892e-07
2.70279e-07
2.70777e-07
2.71409e-07
2.721e-07
2.72501e-07
2.73044e-07
2.73515e-07
2.73952e-07
2.74334e-07
2.74779e-07
2.75094e-07
2.7544e-07
2.75783e-07
2.76153e-07
2.76512e-07
2.76754e-07
2.77055e-07
2.77367e-07
2.77674e-07
2.77959e-07
2.78206e-07
2.78442e-07
2.78684e-07
2.78869e-07
2.85964e-07
2.82365e-07
2.78641e-07
2.7489e-07
2.70986e-07
2.68565e-07
2.67637e-07
2.67468e-07
2.67749e-07
2.68344e-07
2.69061e-07
2.69641e-07
2.7045e-07
2.70847e-07
2.71483e-07
2.7206e-07
2.72603e-07
2.73209e-07
2.7383e-07
2.74326e-07
2.74876e-07
2.75302e-07
2.75643e-07
2.76083e-07
2.76439e-07
2.76904e-07
2.77317e-07
2.77668e-07
2.78006e-07
2.78335e-07
2.78718e-07
2.79055e-07
2.79402e-07
2.79727e-07
2.79991e-07
2.80293e-07
2.80527e-07
2.8074e-07
2.84845e-07
2.8128e-07
2.77757e-07
2.74281e-07
2.70708e-07
2.68928e-07
2.6846e-07
2.684e-07
2.68769e-07
2.69528e-07
2.70264e-07
2.70828e-07
2.71324e-07
2.7198e-07
2.7266e-07
2.73237e-07
2.73894e-07
2.74574e-07
2.75073e-07
2.75598e-07
2.75998e-07
2.76478e-07
2.76868e-07
2.77399e-07
2.77824e-07
2.78309e-07
2.78682e-07
2.79076e-07
2.79516e-07
2.7991e-07
2.80338e-07
2.80695e-07
2.81004e-07
2.81323e-07
2.81595e-07
2.81926e-07
2.82181e-07
2.82453e-07
2.84014e-07
2.80432e-07
2.7728e-07
2.73619e-07
2.70685e-07
2.69328e-07
2.68956e-07
2.6921e-07
2.69835e-07
2.70366e-07
2.70985e-07
2.71638e-07
2.72287e-07
2.72808e-07
2.73555e-07
2.7415e-07
2.74921e-07
2.75516e-07
2.761e-07
2.76561e-07
2.77013e-07
2.77604e-07
2.78162e-07
2.78696e-07
2.79252e-07
2.79689e-07
2.80066e-07
2.805e-07
2.80966e-07
2.81316e-07
2.81693e-07
2.82111e-07
2.8248e-07
2.82874e-07
2.83221e-07
2.83526e-07
2.83886e-07
2.84185e-07
2.83418e-07
2.79825e-07
2.76777e-07
2.73282e-07
2.70849e-07
2.69832e-07
2.69674e-07
2.69917e-07
2.70501e-07
2.71128e-07
2.71802e-07
2.72558e-07
2.73123e-07
2.73832e-07
2.74639e-07
2.75273e-07
2.75898e-07
2.76467e-07
2.77084e-07
2.777e-07
2.78262e-07
2.78846e-07
2.79355e-07
2.79909e-07
2.80408e-07
2.80948e-07
2.81443e-07
2.81936e-07
2.8228e-07
2.82788e-07
2.83182e-07
2.83609e-07
2.84053e-07
2.84401e-07
2.84746e-07
2.8511e-07
2.85383e-07
2.85755e-07
2.82877e-07
2.79417e-07
2.76187e-07
2.73156e-07
2.71118e-07
2.70408e-07
2.70356e-07
2.70703e-07
2.712e-07
2.71838e-07
2.72595e-07
2.73252e-07
2.73945e-07
2.74602e-07
2.75426e-07
2.76099e-07
2.76811e-07
2.7747e-07
2.78129e-07
2.78689e-07
2.79396e-07
2.79954e-07
2.80512e-07
2.81128e-07
2.81618e-07
2.82214e-07
2.82614e-07
2.83135e-07
2.83653e-07
2.84083e-07
2.84565e-07
2.85037e-07
2.85515e-07
2.85906e-07
2.86252e-07
2.86636e-07
2.86999e-07
2.87362e-07
2.82484e-07
2.79011e-07
2.75874e-07
2.73211e-07
2.71657e-07
2.71065e-07
2.70991e-07
2.71286e-07
2.71965e-07
2.72551e-07
2.73309e-07
2.74191e-07
2.74788e-07
2.75621e-07
2.764e-07
2.77044e-07
2.77716e-07
2.78461e-07
2.79133e-07
2.7974e-07
2.80402e-07
2.81017e-07
2.81588e-07
2.82179e-07
2.82783e-07
2.83391e-07
2.83915e-07
2.84421e-07
2.84866e-07
2.85381e-07
2.85904e-07
2.86402e-07
2.86868e-07
2.87362e-07
2.87714e-07
2.88156e-07
2.88514e-07
2.88862e-07
2.82099e-07
2.78624e-07
2.75707e-07
2.73371e-07
2.72038e-07
2.71548e-07
2.71497e-07
2.71927e-07
2.72678e-07
2.73392e-07
2.74134e-07
2.74827e-07
2.75563e-07
2.76294e-07
2.77199e-07
2.77841e-07
2.78628e-07
2.79368e-07
2.79948e-07
2.80678e-07
2.81347e-07
2.8198e-07
2.82547e-07
2.8321e-07
2.83819e-07
2.8449e-07
2.8504e-07
2.85645e-07
2.86096e-07
2.86652e-07
2.87195e-07
2.87671e-07
2.88188e-07
2.88639e-07
2.89129e-07
2.89549e-07
2.89934e-07
2.90336e-07
2.81851e-07
2.78323e-07
2.75591e-07
2.73491e-07
2.72364e-07
2.71968e-07
2.72135e-07
2.72529e-07
2.73167e-07
2.73953e-07
2.748e-07
2.75686e-07
2.7641e-07
2.77085e-07
2.77903e-07
2.78641e-07
2.79428e-07
2.80122e-07
2.8091e-07
2.81509e-07
2.82193e-07
2.82905e-07
2.83598e-07
2.84291e-07
2.84945e-07
2.85554e-07
2.8623e-07
2.8674e-07
2.87294e-07
2.87836e-07
2.88425e-07
2.8893e-07
2.89465e-07
2.89937e-07
2.90392e-07
2.90867e-07
2.91332e-07
2.9176e-07
2.81569e-07
2.78169e-07
2.75594e-07
2.73777e-07
2.72753e-07
2.72517e-07
2.72615e-07
2.73144e-07
2.73911e-07
2.74739e-07
2.75508e-07
2.76297e-07
2.77034e-07
2.77924e-07
2.78739e-07
2.7951e-07
2.80237e-07
2.80949e-07
2.81677e-07
2.82386e-07
2.83147e-07
2.8382e-07
2.84557e-07
2.85308e-07
2.85886e-07
2.86595e-07
2.87232e-07
2.87816e-07
2.88397e-07
2.88992e-07
2.8959e-07
2.90137e-07
2.90667e-07
2.91178e-07
2.91631e-07
2.92122e-07
2.92676e-07
2.93068e-07
2.8137e-07
2.78e-07
2.75622e-07
2.74003e-07
2.73206e-07
2.72926e-07
2.73239e-07
2.73807e-07
2.74483e-07
2.75328e-07
2.76147e-07
2.77006e-07
2.77843e-07
2.78574e-07
2.79469e-07
2.80238e-07
2.81025e-07
2.81747e-07
2.82482e-07
2.83207e-07
2.83948e-07
2.84719e-07
2.85451e-07
2.86208e-07
2.86888e-07
2.87507e-07
2.88185e-07
2.88858e-07
2.89479e-07
2.9014e-07
2.90705e-07
2.9123e-07
2.91823e-07
2.92353e-07
2.92876e-07
2.93371e-07
2.93889e-07
2.94375e-07
2.81263e-07
2.77872e-07
2.75667e-07
2.74207e-07
2.73541e-07
2.73405e-07
2.73681e-07
2.74288e-07
2.75039e-07
2.75842e-07
2.76678e-07
2.77527e-07
2.78365e-07
2.79174e-07
2.80054e-07
2.80972e-07
2.8176e-07
2.82516e-07
2.83277e-07
2.84031e-07
2.84828e-07
2.85604e-07
2.8632e-07
2.87067e-07
2.87743e-07
2.88516e-07
2.89154e-07
2.89856e-07
2.90476e-07
2.91093e-07
2.91763e-07
2.92296e-07
2.92935e-07
2.93493e-07
2.94009e-07
2.94527e-07
2.95066e-07
2.9556e-07
2.80941e-07
2.77812e-07
2.75738e-07
2.74437e-07
2.73908e-07
2.73928e-07
2.74239e-07
2.74831e-07
2.75607e-07
2.76393e-07
2.77334e-07
2.78162e-07
2.78918e-07
2.79803e-07
2.80708e-07
2.81678e-07
2.82476e-07
2.83214e-07
2.84003e-07
2.84785e-07
2.85606e-07
2.86328e-07
2.87174e-07
2.8792e-07
2.88666e-07
2.894e-07
2.90091e-07
2.90742e-07
2.91438e-07
2.92044e-07
2.92714e-07
2.93386e-07
2.94003e-07
2.94592e-07
2.9509e-07
2.95691e-07
2.9623e-07
2.96727e-07
2.80842e-07
2.77749e-07
2.75871e-07
2.74769e-07
2.74333e-07
2.74328e-07
2.74687e-07
2.75335e-07
2.76071e-07
2.76984e-07
2.77829e-07
2.78685e-07
2.79541e-07
2.80341e-07
2.81324e-07
2.82239e-07
2.83047e-07
2.83883e-07
2.84678e-07
2.85538e-07
2.86385e-07
2.87198e-07
2.87957e-07
2.888e-07
2.89529e-07
2.90317e-07
2.91037e-07
2.91711e-07
2.92392e-07
2.93024e-07
2.93715e-07
2.9434e-07
2.94942e-07
2.95527e-07
2.9617e-07
2.96715e-07
2.97282e-07
2.97809e-07
2.80624e-07
2.77739e-07
2.7601e-07
2.75033e-07
2.74687e-07
2.74792e-07
2.75219e-07
2.75912e-07
2.76665e-07
2.77552e-07
2.78361e-07
2.79207e-07
2.80162e-07
2.8101e-07
2.81985e-07
2.82881e-07
2.8371e-07
2.84553e-07
2.85405e-07
2.86275e-07
2.87166e-07
2.87988e-07
2.88792e-07
2.89556e-07
2.90279e-07
2.91109e-07
2.91874e-07
2.92552e-07
2.93265e-07
2.93939e-07
2.94611e-07
2.95278e-07
2.95943e-07
2.9654e-07
2.97178e-07
2.97751e-07
2.98319e-07
2.98871e-07
2.80565e-07
2.77744e-07
2.76186e-07
2.75433e-07
2.75193e-07
2.75319e-07
2.75736e-07
2.76334e-07
2.77095e-07
2.77953e-07
2.78822e-07
2.79736e-07
2.8066e-07
2.8154e-07
2.82506e-07
2.83456e-07
2.8432e-07
2.85206e-07
2.86107e-07
2.86984e-07
2.87789e-07
2.88712e-07
2.89528e-07
2.90283e-07
2.91093e-07
2.91864e-07
2.92707e-07
2.9341e-07
2.94131e-07
2.94807e-07
2.95542e-07
2.9621e-07
2.96863e-07
2.97527e-07
2.98141e-07
2.98716e-07
2.99274e-07
2.9984e-07
2.80497e-07
2.77807e-07
2.76374e-07
2.75701e-07
2.75463e-07
2.75667e-07
2.76104e-07
2.76859e-07
2.77636e-07
2.78429e-07
2.79395e-07
2.80296e-07
2.81284e-07
2.82117e-07
2.83102e-07
2.84061e-07
2.84924e-07
2.85767e-07
2.86697e-07
2.87653e-07
2.88504e-07
2.89347e-07
2.90247e-07
2.91033e-07
2.91804e-07
2.92639e-07
2.93466e-07
2.942e-07
2.94945e-07
2.9565e-07
2.96393e-07
2.97067e-07
2.97756e-07
2.98415e-07
2.99013e-07
2.99588e-07
3.00145e-07
3.00766e-07
2.80455e-07
2.77874e-07
2.76521e-07
2.75953e-07
2.75815e-07
2.76017e-07
2.76623e-07
2.7729e-07
2.78043e-07
2.78949e-07
2.79849e-07
2.80809e-07
2.81764e-07
2.8267e-07
2.83651e-07
2.84543e-07
2.8546e-07
2.86381e-07
2.87318e-07
2.88244e-07
2.8913e-07
2.8999e-07
2.90845e-07
2.91676e-07
2.92519e-07
2.93371e-07
2.94195e-07
2.94934e-07
2.95687e-07
2.96455e-07
2.97139e-07
2.97867e-07
2.98578e-07
2.9922e-07
2.99854e-07
3.00461e-07
3.01045e-07
3.01665e-07
2.80419e-07
2.77953e-07
2.76732e-07
2.76179e-07
2.76163e-07
2.76436e-07
2.76997e-07
2.77689e-07
2.78463e-07
2.79326e-07
2.8027e-07
2.813e-07
2.8226e-07
2.83195e-07
2.84151e-07
2.85111e-07
2.86045e-07
2.86952e-07
2.87932e-07
2.88817e-07
2.89789e-07
2.90652e-07
2.91493e-07
2.92364e-07
2.93211e-07
2.94059e-07
2.94887e-07
2.95702e-07
2.96469e-07
2.97241e-07
2.97962e-07
2.98638e-07
2.99334e-07
2.9997e-07
3.00612e-07
3.01258e-07
3.01886e-07
3.02474e-07
2.80396e-07
2.78066e-07
2.77068e-07
2.7665e-07
2.76614e-07
2.76846e-07
2.77387e-07
2.7807e-07
2.78876e-07
2.79738e-07
2.80783e-07
2.81706e-07
2.8269e-07
2.83697e-07
2.84661e-07
2.85563e-07
2.86536e-07
2.87512e-07
2.88414e-07
2.89403e-07
2.90315e-07
2.91239e-07
2.92113e-07
2.93015e-07
2.93843e-07
2.9472e-07
2.95556e-07
2.96383e-07
2.97157e-07
2.97921e-07
2.98668e-07
2.99344e-07
3.00013e-07
3.00726e-07
3.01364e-07
3.02e-07
3.02621e-07
3.03233e-07
2.80417e-07
2.78171e-07
2.77263e-07
2.76918e-07
2.76917e-07
2.77211e-07
2.77736e-07
2.78438e-07
2.79292e-07
2.80212e-07
2.81214e-07
2.82154e-07
2.83167e-07
2.84166e-07
2.8509e-07
2.86041e-07
2.87043e-07
2.88079e-07
2.88999e-07
2.89891e-07
2.90843e-07
2.91763e-07
2.92713e-07
2.93613e-07
2.94468e-07
2.95326e-07
2.96193e-07
2.96988e-07
2.9775e-07
2.98533e-07
2.99305e-07
3e-07
3.00721e-07
3.01417e-07
3.02063e-07
3.02717e-07
3.03366e-07
3.04001e-07
2.80463e-07
2.78393e-07
2.77456e-07
2.77132e-07
2.77234e-07
2.77556e-07
2.78094e-07
2.78858e-07
2.79687e-07
2.8061e-07
2.81605e-07
2.82578e-07
2.83607e-07
2.84537e-07
2.8549e-07
2.8648e-07
2.87511e-07
2.88514e-07
2.8949e-07
2.9042e-07
2.91379e-07
2.92335e-07
2.93257e-07
2.9416e-07
2.95013e-07
2.95889e-07
2.9676e-07
2.97607e-07
2.98401e-07
2.9911e-07
2.99886e-07
3.00652e-07
3.01359e-07
3.02061e-07
3.02695e-07
3.03361e-07
3.04024e-07
3.04659e-07
2.80497e-07
2.78527e-07
2.77699e-07
2.77447e-07
2.7758e-07
2.7799e-07
2.78523e-07
2.7922e-07
2.80011e-07
2.80993e-07
2.81988e-07
2.8298e-07
2.84031e-07
2.84993e-07
2.85986e-07
2.86913e-07
2.87921e-07
2.88948e-07
2.89972e-07
2.90921e-07
2.91912e-07
2.92836e-07
2.93752e-07
2.94692e-07
2.95575e-07
2.96441e-07
2.97309e-07
2.98121e-07
2.98926e-07
2.99725e-07
3.00498e-07
3.01242e-07
3.01948e-07
3.0266e-07
3.03352e-07
3.04011e-07
3.04646e-07
3.05311e-07
2.80556e-07
2.78679e-07
2.77996e-07
2.77808e-07
2.7789e-07
2.78294e-07
2.78857e-07
2.79571e-07
2.80461e-07
2.81409e-07
2.8236e-07
2.83396e-07
2.84409e-07
2.85432e-07
2.86406e-07
2.87401e-07
2.88414e-07
2.89399e-07
2.90414e-07
2.91423e-07
2.92336e-07
2.93322e-07
2.94264e-07
2.95174e-07
2.96044e-07
2.96933e-07
2.97806e-07
2.9865e-07
2.99482e-07
3.00224e-07
3.01003e-07
3.01749e-07
3.02484e-07
3.03211e-07
3.03916e-07
3.04598e-07
3.05265e-07
3.05912e-07
2.80618e-07
2.78835e-07
2.782e-07
2.78007e-07
2.78159e-07
2.78571e-07
2.79162e-07
2.79936e-07
2.80808e-07
2.81742e-07
2.82692e-07
2.83713e-07
2.84753e-07
2.85753e-07
2.8678e-07
2.87767e-07
2.88798e-07
2.89789e-07
2.90812e-07
2.91811e-07
2.9279e-07
2.93738e-07
2.9469e-07
2.95628e-07
2.96497e-07
2.97416e-07
2.98259e-07
2.99109e-07
2.99957e-07
3.00742e-07
3.01495e-07
3.02263e-07
3.03029e-07
3.0377e-07
3.04466e-07
3.05157e-07
3.05828e-07
3.06464e-07
2.80709e-07
2.79028e-07
2.78395e-07
2.78344e-07
2.78462e-07
2.78879e-07
2.79463e-07
2.80225e-07
2.81137e-07
2.82063e-07
2.8308e-07
2.8404e-07
2.85089e-07
2.86143e-07
2.87138e-07
2.88116e-07
2.89159e-07
2.90162e-07
2.91188e-07
2.92152e-07
2.93148e-07
2.94138e-07
2.95081e-07
2.96035e-07
2.96911e-07
2.97819e-07
2.98703e-07
2.99561e-07
3.00418e-07
3.01211e-07
3.01987e-07
3.02743e-07
3.03527e-07
3.0427e-07
3.04979e-07
3.05675e-07
3.06339e-07
3.06992e-07
2.80816e-07
2.79228e-07
2.78614e-07
2.78583e-07
2.78809e-07
2.79167e-07
2.79814e-07
2.80587e-07
2.81455e-07
2.82402e-07
2.83363e-07
2.8433e-07
2.85395e-07
2.86421e-07
2.87471e-07
2.88488e-07
2.89504e-07
2.90494e-07
2.91545e-07
2.92531e-07
2.93526e-07
2.94511e-07
2.95473e-07
2.96422e-07
2.97324e-07
2.98251e-07
2.99143e-07
3.00012e-07
3.00874e-07
3.01662e-07
3.02442e-07
3.03196e-07
3.03961e-07
3.04718e-07
3.05432e-07
3.06135e-07
3.06802e-07
3.07452e-07
2.80923e-07
2.79414e-07
2.78944e-07
2.78812e-07
2.79062e-07
2.79562e-07
2.80152e-07
2.80929e-07
2.81776e-07
2.82691e-07
2.83712e-07
2.84724e-07
2.85767e-07
2.86776e-07
2.8778e-07
2.88804e-07
2.89858e-07
2.90892e-07
2.91934e-07
2.92906e-07
2.93911e-07
2.94898e-07
2.95851e-07
2.9681e-07
2.97722e-07
2.98639e-07
2.99528e-07
3.00424e-07
3.01247e-07
3.02076e-07
3.02883e-07
3.03636e-07
3.04409e-07
3.05166e-07
3.05863e-07
3.06572e-07
3.07236e-07
3.07869e-07
2.81001e-07
2.79594e-07
2.79147e-07
2.79071e-07
2.79376e-07
2.79838e-07
2.80493e-07
2.81222e-07
2.82077e-07
2.82999e-07
2.84007e-07
2.85015e-07
2.86047e-07
2.87092e-07
2.88087e-07
2.89127e-07
2.90146e-07
2.91194e-07
2.9222e-07
2.93231e-07
2.94228e-07
2.95234e-07
2.96185e-07
2.9714e-07
2.9807e-07
2.98979e-07
2.99884e-07
3.00762e-07
3.01602e-07
3.0244e-07
3.03245e-07
3.04013e-07
3.04783e-07
3.05538e-07
3.06265e-07
3.06956e-07
3.07645e-07
3.08289e-07
2.81112e-07
2.79759e-07
2.79329e-07
2.79369e-07
2.79666e-07
2.80083e-07
2.80753e-07
2.81491e-07
2.82365e-07
2.83308e-07
2.84301e-07
2.85302e-07
2.86349e-07
2.87375e-07
2.88396e-07
2.89409e-07
2.90457e-07
2.91509e-07
2.92551e-07
2.93554e-07
2.94547e-07
2.95576e-07
2.96537e-07
2.9746e-07
2.98411e-07
2.99329e-07
3.00216e-07
3.01111e-07
3.01927e-07
3.02777e-07
3.03589e-07
3.0438e-07
3.05129e-07
3.05883e-07
3.06614e-07
3.07311e-07
3.07984e-07
3.08637e-07
2.81185e-07
2.79894e-07
2.79586e-07
2.79619e-07
2.79927e-07
2.80395e-07
2.81002e-07
2.81774e-07
2.82619e-07
2.83589e-07
2.84544e-07
2.85541e-07
2.86615e-07
2.87646e-07
2.88696e-07
2.89725e-07
2.90729e-07
2.91782e-07
2.9282e-07
2.93844e-07
2.94851e-07
2.95833e-07
2.96819e-07
2.97773e-07
2.98709e-07
2.99623e-07
3.00512e-07
3.014e-07
3.02237e-07
3.03082e-07
3.03896e-07
3.04688e-07
3.0544e-07
3.06188e-07
3.06918e-07
3.07643e-07
3.0832e-07
3.08963e-07
2.81352e-07
2.80175e-07
2.79831e-07
2.79918e-07
2.80205e-07
2.80728e-07
2.81367e-07
2.82101e-07
2.82933e-07
2.83852e-07
2.84877e-07
2.85856e-07
2.86889e-07
2.87917e-07
2.88985e-07
2.89988e-07
2.91027e-07
2.92035e-07
2.93077e-07
2.94122e-07
2.95136e-07
2.96111e-07
2.97083e-07
2.98055e-07
2.98994e-07
2.99894e-07
3.00809e-07
3.01691e-07
3.0254e-07
3.0337e-07
3.04176e-07
3.0497e-07
3.0575e-07
3.06489e-07
3.07208e-07
3.07917e-07
3.08605e-07
3.09248e-07
2.81488e-07
2.80364e-07
2.8008e-07
2.80142e-07
2.80468e-07
2.8097e-07
2.81627e-07
2.82415e-07
2.83269e-07
2.8419e-07
2.85148e-07
2.86167e-07
2.87179e-07
2.88203e-07
2.89233e-07
2.90252e-07
2.91287e-07
2.9233e-07
2.93358e-07
2.9439e-07
2.95396e-07
2.96381e-07
2.97368e-07
2.98331e-07
2.99269e-07
3.00182e-07
3.01066e-07
3.01949e-07
3.02814e-07
3.03647e-07
3.04458e-07
3.05243e-07
3.06018e-07
3.0676e-07
3.07477e-07
3.08179e-07
3.08848e-07
3.09499e-07
2.81593e-07
2.80521e-07
2.80268e-07
2.80422e-07
2.8072e-07
2.81194e-07
2.81834e-07
2.82608e-07
2.8347e-07
2.84401e-07
2.85384e-07
2.86383e-07
2.87379e-07
2.88412e-07
2.89454e-07
2.90498e-07
2.91538e-07
2.92567e-07
2.93609e-07
2.9462e-07
2.95622e-07
2.96618e-07
2.97583e-07
2.98548e-07
2.99478e-07
3.00397e-07
3.013e-07
3.02175e-07
3.03035e-07
3.03855e-07
3.04671e-07
3.05473e-07
3.06239e-07
3.06972e-07
3.07693e-07
3.08396e-07
3.09065e-07
3.09715e-07
2.81732e-07
2.8069e-07
2.80537e-07
2.80615e-07
2.80953e-07
2.81515e-07
2.82175e-07
2.82906e-07
2.83753e-07
2.8468e-07
2.8561e-07
2.86615e-07
2.8763e-07
2.88658e-07
2.89689e-07
2.90735e-07
2.91758e-07
2.92781e-07
2.93811e-07
2.94825e-07
2.95837e-07
2.96843e-07
2.97804e-07
2.9877e-07
2.99709e-07
3.00619e-07
3.01505e-07
3.02374e-07
3.03236e-07
3.04066e-07
3.04878e-07
3.05661e-07
3.06425e-07
3.0716e-07
3.07877e-07
3.08578e-07
3.09254e-07
3.09906e-07
2.81819e-07
2.80952e-07
2.80738e-07
2.80894e-07
2.81238e-07
2.81759e-07
2.82425e-07
2.83201e-07
2.84029e-07
2.84904e-07
2.85856e-07
2.86835e-07
2.87853e-07
2.88878e-07
2.89907e-07
2.90929e-07
2.91951e-07
2.92974e-07
2.94003e-07
2.95026e-07
2.96016e-07
2.9701e-07
2.97991e-07
2.98943e-07
2.99878e-07
3.00791e-07
3.01686e-07
3.02554e-07
3.03404e-07
3.04231e-07
3.05036e-07
3.05822e-07
3.06584e-07
3.07321e-07
3.08037e-07
3.08734e-07
3.09412e-07
3.10065e-07
2.81988e-07
2.81115e-07
2.80903e-07
2.81085e-07
2.81489e-07
2.81975e-07
2.82655e-07
2.83385e-07
2.84233e-07
2.85119e-07
2.86061e-07
2.87022e-07
2.88039e-07
2.89051e-07
2.9008e-07
2.91112e-07
2.92149e-07
2.93149e-07
2.94171e-07
2.95198e-07
2.96206e-07
2.9719e-07
2.98157e-07
2.99105e-07
3.00028e-07
3.00938e-07
3.01827e-07
3.02697e-07
3.03544e-07
3.04367e-07
3.05172e-07
3.05955e-07
3.06712e-07
3.07449e-07
3.08167e-07
3.08857e-07
3.09532e-07
3.10183e-07
2.82131e-07
2.81307e-07
2.81209e-07
2.81396e-07
2.81738e-07
2.82287e-07
2.829e-07
2.83643e-07
2.84426e-07
2.85323e-07
2.86262e-07
2.87247e-07
2.88226e-07
2.89261e-07
2.90278e-07
2.91292e-07
2.92316e-07
2.93341e-07
2.94354e-07
2.95352e-07
2.96345e-07
2.97326e-07
2.98286e-07
2.99232e-07
3.00157e-07
3.01061e-07
3.01952e-07
3.02815e-07
3.03657e-07
3.04482e-07
3.05281e-07
3.06059e-07
3.06817e-07
3.07551e-07
3.08266e-07
3.08958e-07
3.09627e-07
3.10276e-07
2.82245e-07
2.81486e-07
2.81356e-07
2.81581e-07
2.81936e-07
2.82478e-07
2.83122e-07
2.8388e-07
2.84702e-07
2.85566e-07
2.86484e-07
2.87452e-07
2.88435e-07
2.8943e-07
2.90441e-07
2.91453e-07
2.92461e-07
2.93476e-07
2.9449e-07
2.95486e-07
2.96475e-07
2.97451e-07
2.98411e-07
2.99352e-07
3.00274e-07
3.01177e-07
3.02057e-07
3.02919e-07
3.03757e-07
3.04576e-07
3.05371e-07
3.06144e-07
3.06899e-07
3.07629e-07
3.08338e-07
3.09028e-07
3.09692e-07
3.10338e-07
2.82358e-07
2.81651e-07
2.816e-07
2.81737e-07
2.82139e-07
2.82697e-07
2.83329e-07
2.84069e-07
2.84888e-07
2.85748e-07
2.86645e-07
2.87616e-07
2.88594e-07
2.89588e-07
2.90592e-07
2.91603e-07
2.92606e-07
2.93617e-07
2.94616e-07
2.95599e-07
2.96583e-07
2.97554e-07
2.98511e-07
2.99442e-07
3.00363e-07
3.0126e-07
3.02137e-07
3.02993e-07
3.03826e-07
3.04639e-07
3.05428e-07
3.06199e-07
3.06948e-07
3.07675e-07
3.08382e-07
3.09065e-07
3.09727e-07
3.10369e-07
2.82445e-07
2.81768e-07
2.81725e-07
2.81981e-07
2.82367e-07
2.82873e-07
2.83511e-07
2.84239e-07
2.85066e-07
2.85928e-07
2.86833e-07
2.87763e-07
2.88747e-07
2.89736e-07
2.90725e-07
2.91736e-07
2.92752e-07
2.93738e-07
2.94726e-07
2.95707e-07
2.96684e-07
2.97636e-07
2.98591e-07
2.99524e-07
3.00432e-07
3.01319e-07
3.0219e-07
3.0304e-07
3.03871e-07
3.04678e-07
3.05465e-07
3.06229e-07
3.06971e-07
3.07692e-07
3.08398e-07
3.09076e-07
3.09733e-07
3.10372e-07
2.82646e-07
2.8201e-07
2.82001e-07
2.82196e-07
2.82573e-07
2.83093e-07
2.83754e-07
2.84453e-07
2.85249e-07
2.86098e-07
2.87008e-07
2.87959e-07
2.88893e-07
2.89882e-07
2.9088e-07
2.91875e-07
2.92862e-07
2.93836e-07
2.94824e-07
2.9579e-07
2.96765e-07
2.97712e-07
2.98651e-07
2.99573e-07
3.00481e-07
3.0136e-07
3.02222e-07
3.03065e-07
3.03887e-07
3.04692e-07
3.05477e-07
3.06229e-07
3.0697e-07
3.07686e-07
3.08386e-07
3.09061e-07
3.09719e-07
3.10349e-07
2.82766e-07
2.82165e-07
2.82178e-07
2.82384e-07
2.82809e-07
2.83323e-07
2.83943e-07
2.84658e-07
2.85421e-07
2.86278e-07
2.87157e-07
2.88102e-07
2.89045e-07
2.90018e-07
2.90989e-07
2.9198e-07
2.92968e-07
2.93937e-07
2.94904e-07
2.95857e-07
2.96819e-07
2.97759e-07
2.98698e-07
2.99607e-07
3.00512e-07
3.01384e-07
3.02236e-07
3.03066e-07
3.0389e-07
3.04683e-07
3.05464e-07
3.0621e-07
3.06947e-07
3.07656e-07
3.08352e-07
3.09017e-07
3.09676e-07
3.103e-07
2.82884e-07
2.82357e-07
2.82363e-07
2.8261e-07
2.83025e-07
2.83547e-07
2.84118e-07
2.84828e-07
2.85615e-07
2.86466e-07
2.87332e-07
2.8825e-07
2.89177e-07
2.90138e-07
2.91088e-07
2.92075e-07
2.93054e-07
2.9401e-07
2.94974e-07
2.95916e-07
2.96855e-07
2.97794e-07
2.98721e-07
2.99623e-07
3.00517e-07
3.01389e-07
3.02229e-07
3.03048e-07
3.03865e-07
3.04659e-07
3.05418e-07
3.06165e-07
3.06894e-07
3.076e-07
3.08291e-07
3.08949e-07
3.096e-07
3.10224e-07
2.82975e-07
2.82529e-07
2.82527e-07
2.82816e-07
2.83236e-07
2.83737e-07
2.84357e-07
2.85053e-07
2.8582e-07
2.86626e-07
2.87492e-07
2.88388e-07
2.89316e-07
2.90242e-07
2.91205e-07
2.92166e-07
2.93139e-07
2.94079e-07
2.95024e-07
2.95953e-07
2.96882e-07
2.97812e-07
2.98728e-07
2.99626e-07
3.00504e-07
3.01369e-07
3.02208e-07
3.03013e-07
3.03824e-07
3.04608e-07
3.05365e-07
3.06095e-07
3.0682e-07
3.07519e-07
3.08209e-07
3.08856e-07
3.09505e-07
3.10124e-07
2.83159e-07
2.82698e-07
2.82753e-07
2.83013e-07
2.83426e-07
2.83902e-07
2.84541e-07
2.85226e-07
2.85987e-07
2.86794e-07
2.87634e-07
2.88517e-07
2.89422e-07
2.90353e-07
2.91293e-07
2.92241e-07
2.93202e-07
2.94131e-07
2.95064e-07
2.95981e-07
2.96888e-07
2.97812e-07
2.98721e-07
2.99613e-07
3.00473e-07
3.01338e-07
3.02155e-07
3.02966e-07
3.0376e-07
3.04533e-07
3.05282e-07
3.06007e-07
3.06724e-07
3.07416e-07
3.081e-07
3.0875e-07
3.09377e-07
3.10002e-07
2.83256e-07
2.8286e-07
2.82929e-07
2.83203e-07
2.83621e-07
2.84154e-07
2.84715e-07
2.85396e-07
2.8614e-07
2.8694e-07
2.87762e-07
2.88631e-07
2.89523e-07
2.9044e-07
2.91369e-07
2.92314e-07
2.93254e-07
2.94176e-07
2.9509e-07
2.95993e-07
2.96884e-07
2.97798e-07
2.98699e-07
2.99572e-07
3.00435e-07
3.01279e-07
3.02083e-07
3.02896e-07
3.0368e-07
3.04445e-07
3.05181e-07
3.05897e-07
3.06606e-07
3.07294e-07
3.07966e-07
3.08614e-07
3.09238e-07
3.0985e-07
2.83402e-07
2.83016e-07
2.83104e-07
2.83385e-07
2.83803e-07
2.8432e-07
2.84881e-07
2.85553e-07
2.86292e-07
2.87072e-07
2.8788e-07
2.88747e-07
2.89608e-07
2.90532e-07
2.91429e-07
2.92368e-07
2.93282e-07
2.94213e-07
2.95105e-07
2.95992e-07
2.96871e-07
2.97769e-07
2.98666e-07
2.99512e-07
3.00381e-07
3.01203e-07
3.01993e-07
3.02808e-07
3.03576e-07
3.04344e-07
3.0506e-07
3.05769e-07
3.0647e-07
3.07158e-07
3.07819e-07
3.08439e-07
3.09053e-07
3.09659e-07
2.83519e-07
2.83147e-07
2.83274e-07
2.83564e-07
2.83984e-07
2.84487e-07
2.85084e-07
2.85713e-07
2.86444e-07
2.87205e-07
2.8803e-07
2.88859e-07
2.89715e-07
2.90601e-07
2.91497e-07
2.9242e-07
2.93311e-07
2.94233e-07
2.95107e-07
2.95973e-07
2.96856e-07
2.97723e-07
2.98608e-07
2.99448e-07
3.00288e-07
3.01113e-07
3.01891e-07
3.02687e-07
3.03452e-07
3.04206e-07
3.04922e-07
3.05628e-07