/*--------------------------------*- C++ -*----------------------------------*\
  =========                 |
  \\      /  F ield         | OpenFOAM: The Open Source CFD Toolbox
   \\    /   O peration     | Website:  https://openfoam.org
    \\  /    A nd           | Version:  9
     \\/     M anipulation  |
\*---------------------------------------------------------------------------*/
FoamFile
{
    format      ascii;
    class       volScalarField;
    location    "86400";
    object      epsilon;
}
// * * * * * * * * * * * * * * * * * * * * * * * * * * * * * * * * * * * * * //

dimensions      [0 2 -3 0 0 0 0];

internalField   nonuniform List<scalar> 
15450
(
0.00233718
0.00243025
0.00238865
0.00225258
0.00203221
0.00179617
0.00157978
0.00161655
0.00207704
0.00339735
0.00469461
0.00525963
0.00537417
0.0237569
0.042012
0.0521545
0.0548598
0.0568826
0.0644959
0.0810313
0.102384
0.125286
0.16268
0.220843
0.257945
0.271918
0.281925
0.306998
0.366829
0.437726
0.460413
0.484565
0.543902
0.660673
0.7891
0.8121
0.752969
0.716985
0.00331697
0.00326517
0.00287302
0.00230751
0.00197138
0.00192419
0.0021517
0.00307218
0.00519215
0.0080615
0.0117327
0.0170151
0.0242342
0.040181
0.0533487
0.0550213
0.0530732
0.0531675
0.0583875
0.0666213
0.0788072
0.0987817
0.122028
0.135023
0.135039
0.137648
0.158743
0.193489
0.209252
0.206364
0.199138
0.224944
0.287592
0.313537
0.266178
0.157517
0.143427
0.131256
0.00414072
0.00408903
0.00355754
0.00290261
0.00276407
0.00333125
0.00527686
0.00918494
0.0148177
0.02087
0.0282419
0.0356065
0.0413193
0.0501528
0.054386
0.0537823
0.0484925
0.0481433
0.0544024
0.063051
0.0696128
0.0797903
0.0959437
0.112599
0.126642
0.129724
0.134906
0.146154
0.148705
0.151792
0.152729
0.152457
0.161329
0.16249
0.136651
0.106955
0.0968967
0.0860088
0.00477341
0.0052934
0.0047584
0.0043117
0.00500378
0.00792702
0.0140228
0.0216221
0.0261828
0.0302152
0.0360814
0.042165
0.0459479
0.0504404
0.0536475
0.0539581
0.0510223
0.0507749
0.0557602
0.0634627
0.0691391
0.0767757
0.0892701
0.10367
0.118473
0.123104
0.12166
0.120614
0.119863
0.119646
0.120771
0.119128
0.11232
0.104754
0.093243
0.0866903
0.0844532
0.0782824
0.00522492
0.00765471
0.00714472
0.0074457
0.0105012
0.0176496
0.0261044
0.029647
0.0305329
0.0315708
0.0361788
0.0430319
0.0473794
0.0498673
0.05263
0.0548428
0.0551213
0.0553991
0.0588638
0.0651675
0.0702347
0.0754945
0.0839279
0.0938053
0.103635
0.108184
0.107097
0.101745
0.0980076
0.0963773
0.0961959
0.0952626
0.0891198
0.0813622
0.0748537
0.0729704
0.0727475
0.0710419
0.0231165
0.0125028
0.0114056
0.0132539
0.0193983
0.0283123
0.0323482
0.0326563
0.0307402
0.0309336
0.0349932
0.0427122
0.0477676
0.0500553
0.0522385
0.0551789
0.0573918
0.058587
0.0609006
0.0654436
0.0699992
0.0732388
0.077452
0.0832067
0.0889256
0.0917273
0.0915823
0.0874841
0.0830573
0.0803897
0.0792876
0.0782922
0.0750912
0.0700887
0.0659852
0.0648362
0.0647374
0.064575
0.0272979
0.0178486
0.0173668
0.0209389
0.0284612
0.0338651
0.0349559
0.0328043
0.030671
0.0306958
0.0347011
0.0421326
0.0475929
0.0501559
0.0522336
0.0550066
0.0576296
0.0594782
0.0613505
0.064445
0.0677507
0.0699056
0.0718134
0.0744356
0.0771739
0.0784474
0.0783774
0.0760983
0.0726801
0.0700197
0.0684815
0.0673846
0.0656485
0.0630181
0.0606458
0.0597855
0.0596439
0.0596542
0.0366399
0.0243592
0.0244585
0.028613
0.0344094
0.0364041
0.0359004
0.0326918
0.0310485
0.0312047
0.0352029
0.04167
0.0467283
0.0497964
0.0520324
0.0545393
0.0570999
0.0590623
0.0606717
0.0625091
0.06449
0.0660042
0.0670404
0.0680528
0.0689948
0.0692387
0.0688835
0.0674387
0.0652037
0.0631191
0.0616299
0.0605588
0.0594513
0.0581019
0.0568611
0.056318
0.0562093
0.0562373
0.0457593
0.0315522
0.031687
0.034934
0.0375795
0.0378469
0.0360062
0.0331251
0.0321738
0.0326789
0.0361392
0.0411338
0.0454836
0.0487273
0.0512735
0.0535756
0.0558253
0.0577179
0.0591388
0.0603602
0.0615419
0.0624523
0.0629963
0.0632914
0.0633741
0.0631462
0.0625034
0.0613705
0.0598549
0.0583456
0.0571243
0.0561986
0.0554096
0.0546563
0.0540311
0.0537687
0.0537328
0.0538142
0.056196
0.0385295
0.0380726
0.0392711
0.039605
0.0385008
0.0361472
0.0340653
0.0335406
0.0341591
0.0369314
0.0407305
0.0443707
0.0474512
0.0500207
0.0522443
0.0542538
0.0559407
0.0572192
0.0581883
0.0589554
0.0594561
0.059644
0.05965
0.0594301
0.0589589
0.0582249
0.0572481
0.0561145
0.0550015
0.0540556
0.0533139
0.0527308
0.0522676
0.0519517
0.0518651
0.0518979
0.0520348
0.0679064
0.0448707
0.0431043
0.0422974
0.0407848
0.0387627
0.0364751
0.0351933
0.0348852
0.035551
0.0377069
0.0406079
0.0435676
0.0463098
0.0487257
0.0508177
0.0526323
0.0541337
0.0552787
0.0561008
0.0566587
0.0569104
0.0569547
0.0568276
0.0564958
0.0559679
0.0552622
0.0544208
0.0535199
0.0526616
0.0519276
0.0513483
0.0509133
0.0506072
0.0504597
0.0504472
0.0505422
0.0507092
0.0799337
0.0502261
0.0468425
0.0442814
0.04137
0.0389014
0.0370567
0.0362585
0.0361159
0.0368082
0.0384891
0.0407118
0.0431113
0.0454508
0.0476013
0.049495
0.0511188
0.0524505
0.0534692
0.0541885
0.0546197
0.054771
0.054766
0.0545873
0.0542393
0.0537415
0.0531196
0.0524153
0.0516891
0.0510101
0.050432
0.0499791
0.0496519
0.049447
0.0493832
0.0494081
0.0495327
0.0497147
0.0910705
0.0544548
0.0494391
0.0454694
0.0416185
0.0390406
0.0376853
0.0372165
0.0372035
0.0379139
0.0392654
0.0410176
0.0429444
0.0448894
0.0467308
0.0483833
0.0498052
0.0509707
0.0518654
0.0524954
0.052853
0.0529689
0.052952
0.0527739
0.0524566
0.0520242
0.051504
0.0509315
0.050352
0.0498141
0.0493564
0.0490002
0.04875
0.048617
0.0485892
0.0486407
0.0487717
0.0489558
0.100925
0.0576199
0.0510691
0.0460747
0.0416777
0.0392826
0.038265
0.0379876
0.0381611
0.0388645
0.0399909
0.0414035
0.0429577
0.0445644
0.046103
0.0475038
0.0487186
0.0497188
0.0504903
0.0510352
0.0513441
0.0514465
0.0514328
0.0512805
0.0510138
0.0506583
0.0502401
0.0497884
0.0493365
0.0489173
0.0485568
0.0482765
0.0480836
0.0479955
0.0479859
0.0480456
0.0481747
0.0483525
0.109605
0.0598893
0.051957
0.0462895
0.0417643
0.0395682
0.0387776
0.0386362
0.0389734
0.0396673
0.0406385
0.0418073
0.0430835
0.0443919
0.04566
0.0468232
0.0478386
0.0486788
0.0493304
0.049793
0.050061
0.0501552
0.0501489
0.05003
0.049819
0.0495407
0.0492187
0.0488762
0.0485387
0.0482276
0.0479435
0.0477208
0.0475675
0.0475009
0.0474972
0.047555
0.0476727
0.0478371
0.11686
0.0613563
0.0522272
0.0462557
0.0418608
0.0398453
0.0392261
0.0392003
0.0396495
0.0403331
0.0411912
0.0421762
0.0432307
0.0443012
0.0453361
0.0462874
0.0471203
0.0478118
0.0483502
0.0487343
0.048963
0.0490487
0.0490495
0.0489634
0.0488057
0.0486
0.0483675
0.0481217
0.0478904
0.0476326
0.0474031
0.0472301
0.0471145
0.0470684
0.0470735
0.0471345
0.0472475
0.0474039
0.123357
0.0622813
0.0521408
0.0461323
0.041954
0.040115
0.0396044
0.0396987
0.0402069
0.0408754
0.0416456
0.0424866
0.0433622
0.0442359
0.0450742
0.0458409
0.0465112
0.047068
0.0475024
0.0478138
0.0480045
0.0480809
0.0480876
0.0480305
0.0479207
0.0477815
0.0476061
0.0474172
0.0472237
0.0470166
0.0468524
0.0467327
0.046666
0.0466502
0.0466782
0.0467556
0.0468771
0.0470357
0.128613
0.0627585
0.0518661
0.0458921
0.0420082
0.0403441
0.0399246
0.0401148
0.0406615
0.0413173
0.0420177
0.0427392
0.0434614
0.044164
0.0448279
0.0454293
0.0459532
0.0463888
0.0467304
0.0469776
0.0471343
0.0472041
0.0472167
0.0471858
0.0471153
0.047016
0.0468781
0.0467327
0.046586
0.0464455
0.0463336
0.0462579
0.0462285
0.046234
0.046282
0.0463715
0.0464984
0.0466569
0.133442
0.0630145
0.0513798
0.0455747
0.0420404
0.0405883
0.0402683
0.0405493
0.0411156
0.0417363
0.0423501
0.0429454
0.0435172
0.0440644
0.0445711
0.0450286
0.0454279
0.0457621
0.0460268
0.0462213
0.0463483
0.0464074
0.0464161
0.0464081
0.046374
0.0463031
0.0462047
0.0460983
0.0459929
0.0458982
0.0458265
0.0457881
0.0457818
0.0458077
0.0458706
0.0459685
0.0460983
0.0462551
0.137925
0.0630308
0.0508372
0.0452103
0.0420176
0.0407384
0.0404884
0.0408057
0.0413634
0.0419509
0.0425078
0.0430246
0.0435022
0.0439491
0.0443483
0.0447023
0.045007
0.0452583
0.0454544
0.0455955
0.0456845
0.0457224
0.0457249
0.0457168
0.0456937
0.0456406
0.04557
0.0454938
0.0454209
0.0453597
0.0453202
0.0453072
0.0453188
0.0453614
0.0454352
0.0455387
0.0456693
0.045823
0.142212
0.0629998
0.0502891
0.044825
0.0419463
0.0408207
0.0406324
0.0409713
0.0415139
0.0420677
0.0425732
0.0430251
0.0434375
0.0437896
0.0440993
0.0443671
0.0445924
0.0447739
0.0449118
0.0450076
0.0450637
0.0450838
0.0450809
0.0450698
0.0450502
0.0450096
0.0449581
0.0449044
0.044856
0.0448203
0.0448049
0.0448077
0.0448357
0.0448903
0.0449714
0.0450781
0.0452079
0.0453575
0.146424
0.0629374
0.049753
0.0444317
0.0418084
0.0408196
0.0406858
0.0410406
0.0415663
0.0420908
0.0425629
0.0429702
0.0433054
0.0435847
0.0438208
0.0440173
0.0441762
0.0442991
0.0443877
0.0444445
0.0444715
0.0444759
0.0444648
0.0444487
0.044429
0.0443961
0.0443575
0.04432
0.0442895
0.0442737
0.0442718
0.0442892
0.0443289
0.0443918
0.0444776
0.0445854
0.0447131
0.0448579
0.150614
0.0629275
0.0492448
0.044049
0.0416364
0.0407726
0.0406724
0.041033
0.0415489
0.0420541
0.0424894
0.0428379
0.0431151
0.0433368
0.0435128
0.0436502
0.0437538
0.0438272
0.0438739
0.0438955
0.0438986
0.0438873
0.0438657
0.0438427
0.0438202
0.0437908
0.0437602
0.0437337
0.0437171
0.0437122
0.0437216
0.0437496
0.0437974
0.0438656
0.043954
0.0440614
0.044186
0.0443254
0.154756
0.0629659
0.0487774
0.0436721
0.0414261
0.0406624
0.0406086
0.0409723
0.0414682
0.0419393
0.0423307
0.0426404
0.0428755
0.0430502
0.0431769
0.0432653
0.0433227
0.0433531
0.043363
0.0433563
0.043337
0.0433089
0.0432762
0.0432446
0.0432169
0.0431877
0.0431613
0.0431421
0.0431334
0.0431357
0.0431536
0.0431885
0.0432415
0.0433128
0.0434019
0.0435077
0.0436287
0.0437625
0.158888
0.0630585
0.0483343
0.0432941
0.0411818
0.0404941
0.0404681
0.0408294
0.0413029
0.0417495
0.0421155
0.0423941
0.0425941
0.0427301
0.0428159
0.042862
0.0428794
0.0428753
0.0428542
0.0428209
0.0427801
0.0427357
0.042691
0.0426497
0.0426149
0.0425833
0.0425579
0.0425426
0.0425375
0.042545
0.0425679
0.042607
0.0426628
0.0427352
0.0428236
0.0429271
0.0430439
0.0431721
0.163071
0.0631058
0.0479062
0.0429178
0.0409117
0.0402832
0.0402769
0.0406309
0.0410864
0.0415115
0.0418546
0.0421071
0.0422781
0.0423804
0.0424294
0.0424423
0.0424272
0.0423918
0.0423427
0.0422854
0.0422246
0.0421639
0.0421067
0.0420549
0.0420116
0.0419756
0.0419487
0.0419342
0.0419304
0.0419403
0.0419656
0.0420065
0.0420632
0.0421353
0.0422221
0.0423225
0.042435
0.0425577
0.16704
0.0631549
0.0475357
0.0425613
0.0406276
0.0400398
0.0400481
0.0403926
0.0408299
0.0412348
0.041557
0.0417869
0.0419315
0.0420033
0.0420242
0.0420082
0.0419641
0.0419012
0.0418271
0.0417478
0.041668
0.0415916
0.0415216
0.0414586
0.0414059
0.0413638
0.0413334
0.0413172
0.041313
0.041323
0.0413485
0.0413894
0.0414455
0.0415161
0.0416005
0.0416974
0.0418054
0.0419228
0.170358
0.0633284
0.0472518
0.0422264
0.0403321
0.0397711
0.03979
0.0401235
0.0405424
0.0409276
0.0412299
0.0414389
0.0415583
0.0416047
0.0416022
0.04156
0.0414903
0.0414031
0.0413065
0.0412069
0.0411093
0.0410175
0.0409345
0.04086
0.0407974
0.040748
0.0407124
0.0406926
0.0406865
0.0406948
0.0407189
0.0407582
0.0408124
0.0408807
0.040962
0.0410551
0.0411587
0.041271
0.173423
0.063663
0.0469633
0.0418762
0.040017
0.0394805
0.0395084
0.0398304
0.0402305
0.0405958
0.0408783
0.041067
0.0411628
0.041189
0.0411641
0.041099
0.0410065
0.0408975
0.0407805
0.0406622
0.0405478
0.0404412
0.0403453
0.0402592
0.0401862
0.0401286
0.0400868
0.0400618
0.0400525
0.0400577
0.0400789
0.0401156
0.040167
0.0402321
0.0403099
0.0403991
0.0404983
0.0406058
0.177115
0.0637102
0.04657
0.0414914
0.0396836
0.0391735
0.0392087
0.0395182
0.0398989
0.0402438
0.0405068
0.0406742
0.0407489
0.0407575
0.040712
0.0406262
0.0405135
0.0403849
0.0402493
0.0401138
0.0399836
0.0398627
0.0397542
0.0396567
0.039573
0.0395068
0.0394578
0.0394265
0.0394129
0.0394139
0.0394313
0.0394644
0.0395122
0.0395737
0.0396476
0.0397327
0.0398275
0.0399305
0.18085
0.063528
0.0461673
0.0411201
0.0393535
0.0388601
0.0388961
0.0391907
0.0395507
0.0398745
0.0401173
0.0402636
0.0403201
0.0403114
0.0402473
0.040143
0.0400121
0.0398658
0.0397134
0.039562
0.039417
0.0392827
0.039162
0.0390531
0.0389589
0.0388836
0.0388269
0.0387886
0.0387693
0.0387658
0.0387785
0.0388072
0.0388508
0.0389082
0.038978
0.039059
0.0391496
0.0392484
0.183362
0.0635098
0.0459125
0.0408188
0.0390442
0.038546
0.0385732
0.0388495
0.0391876
0.0394895
0.0397118
0.0398376
0.0398779
0.0398523
0.0397714
0.0396506
0.0395033
0.0393412
0.0391735
0.0390075
0.0388489
0.0387018
0.0385693
0.0384494
0.0383449
0.0382603
0.0381955
0.0381499
0.0381239
0.0381152
0.0381226
0.0381464
0.0381854
0.0382384
0.0383039
0.0383807
0.0384673
0.0385622
0.184576
0.0637663
0.0458082
0.040567
0.0387424
0.0382252
0.0382381
0.0384945
0.0388101
0.0390899
0.0392918
0.0393982
0.0394236
0.0393821
0.039286
0.0391502
0.0389885
0.0388122
0.0386307
0.0384514
0.03828
0.0381209
0.0379771
0.0378467
0.0377321
0.0376383
0.037565
0.0375118
0.0374785
0.0374642
0.037466
0.0374845
0.0375185
0.0375668
0.037628
0.0377007
0.0377834
0.0378746
0.185586
0.0641882
0.0456869
0.0402771
0.0384157
0.0378867
0.0378878
0.0381252
0.0384186
0.0386769
0.0388587
0.038947
0.0389584
0.0389024
0.0387925
0.0386435
0.0384688
0.0382798
0.0380859
0.0378945
0.0377114
0.0375411
0.0373867
0.0372463
0.0371218
0.0370188
0.036937
0.0368761
0.0368352
0.0368145
0.0368107
0.0368235
0.0368524
0.0368959
0.0369526
0.0370211
0.0371001
0.0371879
0.18822
0.064232
0.045316
0.0398998
0.0380545
0.0375292
0.0375229
0.0377422
0.0380142
0.0382516
0.0384137
0.0384856
0.0384838
0.0384147
0.0382925
0.0381318
0.0379457
0.0377454
0.0375403
0.0373379
0.0371441
0.0369633
0.036799
0.0366502
0.0365155
0.0364032
0.0363129
0.036244
0.0361957
0.0361679
0.0361584
0.0361655
0.036189
0.0362276
0.0362798
0.0363443
0.0364196
0.0365042
0.191731
0.0637571
0.044851
0.0395082
0.0376913
0.0371658
0.0371485
0.0373478
0.0375981
0.037815
0.0379583
0.038016
0.0380014
0.0379207
0.0377877
0.0376168
0.0374205
0.0372103
0.0369952
0.0367829
0.0365791
0.0363883
0.0362136
0.036058
0.0359151
0.035793
0.035694
0.0356171
0.0355614
0.0355263
0.0355109
0.0355121
0.0355302
0.0355638
0.0356115
0.035672
0.0357438
0.0358253
0.193011
0.0636755
0.0445835
0.0392086
0.0373609
0.0368075
0.0367681
0.0369437
0.0371717
0.0373688
0.0374946
0.0375395
0.0375131
0.037422
0.0372797
0.0370998
0.0368948
0.0366758
0.0364519
0.0362305
0.0360176
0.0358176
0.0356338
0.0354686
0.035319
0.0351886
0.0350814
0.0349967
0.0349337
0.0348913
0.0348695
0.0348651
0.0348777
0.0349063
0.0349495
0.035006
0.0350743
0.035153
0.192875
0.0638696
0.0445268
0.0389877
0.0370508
0.0364485
0.0363798
0.0365301
0.0367361
0.0369143
0.0370241
0.0370574
0.0370205
0.0369205
0.0367701
0.0365825
0.03637
0.0361433
0.0359115
0.0356821
0.0354609
0.0352525
0.0350602
0.0348865
0.0347295
0.0345913
0.0344763
0.0343839
0.0343136
0.0342643
0.0342357
0.0342258
0.0342328
0.0342564
0.0342952
0.0343477
0.0344127
0.0344886
0.192725
0.0641276
0.0444767
0.0387392
0.0367211
0.0360751
0.0359797
0.0361066
0.0362922
0.0364531
0.0365485
0.0365715
0.0365254
0.0364177
0.0362604
0.0360663
0.0358473
0.035614
0.0353754
0.0351387
0.0349101
0.0346939
0.0344938
0.0343122
0.0341478
0.0340022
0.0338797
0.0337799
0.0337024
0.0336463
0.0336109
0.0335954
0.033597
0.0336155
0.0336498
0.0336985
0.0337601
0.0338333
0.192988
0.064094
0.0442387
0.0384076
0.036355
0.0356836
0.0355681
0.0356748
0.0358418
0.0359868
0.0360696
0.0360834
0.0360294
0.0359151
0.0357522
0.0355527
0.0353282
0.0350893
0.0348446
0.0346016
0.0343662
0.034143
0.0339356
0.0337467
0.0335751
0.0334223
0.0332926
0.0331856
0.0331011
0.0330383
0.0329964
0.0329749
0.0329713
0.0329848
0.0330147
0.0330594
0.0331177
0.0331883
0.195649
0.0637649
0.0438066
0.0380214
0.0359693
0.0352827
0.0351498
0.0352373
0.0353869
0.0355175
0.035589
0.0355948
0.0355341
0.0354144
0.0352468
0.0350429
0.034814
0.0345702
0.0343203
0.0340717
0.0338302
0.0336006
0.0333866
0.0331907
0.0330123
0.0328527
0.0327159
0.0326021
0.0325107
0.0324414
0.0323931
0.0323655
0.0323567
0.0323653
0.0323907
0.0324315
0.0324866
0.0325545
0.196941
0.0634101
0.0434343
0.0376593
0.0355934
0.034884
0.0347299
0.0347974
0.03493
0.0350471
0.0351086
0.0351073
0.035041
0.034917
0.0347456
0.0345382
0.0343056
0.0340579
0.0338036
0.03355
0.0333031
0.0330677
0.0328474
0.0326451
0.0324602
0.0322941
0.0321506
0.0320301
0.0319321
0.0318563
0.0318018
0.0317682
0.0317542
0.0317579
0.0317788
0.0318158
0.0318675
0.0319327
0.196731
0.0634173
0.0432343
0.0373661
0.0352411
0.0344927
0.0343111
0.0343569
0.0344728
0.0345771
0.03463
0.0346223
0.0345514
0.034424
0.0342498
0.0340397
0.0338043
0.0335534
0.0332953
0.0330375
0.0327858
0.0325451
0.0323191
0.0321107
0.0319197
0.0317473
0.0315975
0.0314705
0.0313661
0.031284
0.0312234
0.0311838
0.0311645
0.0311633
0.0311798
0.0312129
0.0312612
0.0313237
0.195537
0.0640141
0.0431552
0.0371063
0.0349014
0.0341054
0.0338934
0.0339172
0.0340168
0.0341094
0.0341546
0.0341413
0.0340667
0.0339367
0.0337606
0.0335486
0.0333111
0.0330576
0.0327965
0.032535
0.0322791
0.0320336
0.0318024
0.0315883
0.0313915
0.0312132
0.0310573
0.030924
0.0308134
0.0307251
0.0306586
0.0306132
0.0305885
0.0305825
0.0305945
0.0306236
0.0306686
0.0307282
0.194787
0.064036
0.0429933
0.0368233
0.0345553
0.0337165
0.0334759
0.0334792
0.0335636
0.0336452
0.0336835
0.0336655
0.0335881
0.0334563
0.0332789
0.0330657
0.0328268
0.0325714
0.0323079
0.0320433
0.0317837
0.0315339
0.0312979
0.0310786
0.0308763
0.0306925
0.0305307
0.0303914
0.0302747
0.0301804
0.0301081
0.0300571
0.0300268
0.0300161
0.0300236
0.0300486
0.0300901
0.0301468
0.195001
0.0635144
0.0426575
0.0364948
0.0341938
0.033324
0.033059
0.033044
0.0331144
0.0331861
0.0332183
0.0331963
0.0331167
0.0329838
0.0328058
0.0325921
0.0323524
0.0320957
0.0318303
0.0315632
0.0313004
0.0310469
0.0308065
0.0305823
0.0303749
0.0301858
0.0300184
0.0298733
0.0297508
0.0296506
0.0295726
0.029516
0.0294803
0.0294646
0.0294676
0.0294886
0.0295264
0.0295801
0.1961
0.0628859
0.042265
0.0361352
0.0338215
0.0329303
0.0326448
0.0326134
0.0326708
0.0327334
0.03276
0.0327347
0.0326535
0.0325202
0.0323422
0.0321286
0.0318886
0.0316313
0.0313645
0.0310955
0.03083
0.0305731
0.0303288
0.0301001
0.029888
0.0296939
0.0295211
0.0293705
0.0292422
0.0291364
0.0290527
0.0289906
0.0289495
0.0289289
0.0289273
0.0289441
0.0289783
0.0290287
0.196108
0.0624805
0.0419117
0.0357814
0.0334529
0.0325424
0.0322373
0.0321897
0.0322346
0.0322885
0.03231
0.0322819
0.0321997
0.0320665
0.031889
0.031676
0.0314364
0.0311788
0.0309113
0.0306408
0.0303731
0.0301133
0.0298654
0.0296327
0.0294162
0.0292174
0.0290395
0.0288836
0.0287498
0.0286384
0.0285491
0.0284815
0.0284352
0.0284095
0.0284033
0.0284158
0.0284461
0.0284933
0.195287
0.0626106
0.0417264
0.0354876
0.0331119
0.0321707
0.0318413
0.0317756
0.0318076
0.0318528
0.0318694
0.031839
0.0317562
0.0316235
0.0314471
0.0312351
0.0309964
0.0307392
0.0304714
0.0301998
0.0299304
0.0296682
0.0294172
0.0291808
0.0289602
0.028757
0.0285744
0.0284132
0.0282741
0.0281572
0.0280625
0.0279895
0.027938
0.0279071
0.0278962
0.0279043
0.0279307
0.0279743
0.193279
0.0634699
0.0416241
0.0352243
0.0327935
0.0318153
0.0314581
0.0313726
0.0313908
0.0314274
0.0314391
0.0314066
0.0313237
0.0311919
0.031017
0.0308067
0.0305694
0.0303131
0.0300455
0.0297734
0.0295028
0.0292385
0.0289848
0.0287451
0.028521
0.0283136
0.0281264
0.0279603
0.027816
0.0276938
0.0275936
0.0275153
0.0274584
0.0274225
0.0274067
0.0274104
0.0274325
0.0274724
0.191203
0.0634826
0.0414883
0.0350229
0.032515
0.0314829
0.0310897
0.0309806
0.0309838
0.0310113
0.0310183
0.0309843
0.0309019
0.0307718
0.0305993
0.0303913
0.0301561
0.0299013
0.0296345
0.0293625
0.029091
0.0288251
0.028569
0.0283261
0.0280984
0.0278873
0.0276957
0.0275249
0.0273755
0.0272481
0.0271426
0.027059
0.0269969
0.0269559
0.0269353
0.0269343
0.0269521
0.0269881
0.190502
0.0622964
0.0411136
0.0346849
0.0321675
0.031113
0.0307018
0.0305803
0.0305755
0.0305984
0.0306039
0.0305707
0.0304906
0.0303635
0.0301943
0.0299895
0.029757
0.0295043
0.0292388
0.0289672
0.0286953
0.0284281
0.0281697
0.0279236
0.0276919
0.0274773
0.0272817
0.0271065
0.0269524
0.02682
0.0267095
0.0266208
0.0265536
0.0265075
0.026482
0.0264765
0.0264899
0.0265218
0.190014
0.0612068
0.0406887
0.0343659
0.0318442
0.0307747
0.0303474
0.0302113
0.0301954
0.0302106
0.030212
0.0301776
0.0300979
0.0299725
0.0298056
0.0296034
0.0293731
0.0291224
0.0288582
0.0285871
0.028315
0.0280468
0.0277867
0.0275381
0.0273037
0.0270858
0.0268865
0.0267071
0.0265485
0.0264113
0.0262958
0.026202
0.0261297
0.0260786
0.0260482
0.026038
0.0260469
0.0260745
0.189202
0.0609408
0.0403917
0.0340627
0.031534
0.0304521
0.0300089
0.0298579
0.0298302
0.0298377
0.0298348
0.0297992
0.0297202
0.0295966
0.0294323
0.0292328
0.0290052
0.0287567
0.0284942
0.0282241
0.0279521
0.0276833
0.0274219
0.0271713
0.0269343
0.0267135
0.0265107
0.0263273
0.0261643
0.0260225
0.0259021
0.0258033
0.025726
0.0256699
0.0256346
0.0256196
0.025624
0.0256469
0.186912
0.0613549
0.0402355
0.0338123
0.0312584
0.0301547
0.0296901
0.0295214
0.029481
0.0294806
0.0294735
0.0294366
0.0293582
0.0292367
0.029075
0.0288786
0.028654
0.028408
0.0281475
0.0278787
0.0276073
0.0273383
0.027076
0.0268237
0.0265846
0.026361
0.0261549
0.0259677
0.0258007
0.0256544
0.0255293
0.0254256
0.0253433
0.0252822
0.0252419
0.0252219
0.0252217
0.02524
0.183884
0.0620285
0.0401392
0.0336138
0.0310191
0.0298812
0.0293896
0.0292017
0.0291485
0.0291402
0.0291288
0.0290905
0.0290128
0.0288934
0.0287347
0.0285415
0.0283201
0.028077
0.0278188
0.0275517
0.0272813
0.0270125
0.0267496
0.0264961
0.0262551
0.026029
0.0258199
0.0256292
0.0254582
0.0253076
0.0251779
0.0250695
0.0249823
0.0249161
0.0248708
0.0248459
0.0248409
0.0248545
0.181305
0.0618167
0.0399879
0.0334366
0.0307983
0.0296218
0.0291039
0.0288983
0.0288331
0.0288171
0.0288016
0.0287619
0.0286849
0.0285678
0.0284121
0.0282224
0.0280044
0.0277644
0.0275089
0.0272439
0.0269748
0.0267066
0.0264435
0.0261891
0.0259465
0.0257183
0.0255064
0.0253125
0.0251377
0.024983
0.024849
0.0247358
0.0246438
0.0245727
0.0245223
0.0244924
0.0244824
0.0244913
0.179553
0.0602332
0.0396738
0.0332344
0.0305695
0.0293678
0.0288315
0.0286117
0.0285357
0.0285125
0.0284929
0.0284517
0.0283755
0.0282606
0.0281081
0.027922
0.0277076
0.0274711
0.0272186
0.0269559
0.0266886
0.0264213
0.0261584
0.0259035
0.0256597
0.0254296
0.0252153
0.0250184
0.0248401
0.0246815
0.0245432
0.0244255
0.0243286
0.0242526
0.0241973
0.0241623
0.0241473
0.0241514
0.178223
0.0590128
0.0393564
0.0329861
0.0303279
0.0291221
0.0285757
0.028344
0.0282576
0.0282271
0.0282035
0.0281607
0.0280853
0.0279728
0.0278236
0.0276412
0.0274308
0.027198
0.0269487
0.0266888
0.0264234
0.0261575
0.0258952
0.0256401
0.0253955
0.0251638
0.0249473
0.0247477
0.0245662
0.0244039
0.0242615
0.0241394
0.0240379
0.023957
0.0238966
0.0238566
0.0238364
0.0238357
0.176112
0.0589167
0.0390978
0.032738
0.0301012
0.0288981
0.0283416
0.0280969
0.0279999
0.027962
0.0279344
0.0278901
0.0278154
0.0277052
0.0275595
0.027381
0.0271747
0.0269458
0.0267002
0.0264433
0.0261803
0.025916
0.0256547
0.0253998
0.0251547
0.0249219
0.0247035
0.0245014
0.024317
0.0241512
0.0240049
0.0238785
0.0237725
0.0236868
0.0236215
0.0235763
0.0235509
0.0235451
0.172293
0.0602803
0.0390139
0.0325553
0.0299212
0.0287062
0.0281316
0.0278714
0.0277631
0.027718
0.0276864
0.0276407
0.0275668
0.027459
0.0273167
0.0271424
0.0269403
0.0267157
0.0264739
0.0262203
0.0259601
0.0256979
0.0254379
0.0251836
0.0249383
0.0247047
0.0244848
0.0242806
0.0240934
0.0239244
0.0237744
0.023644
0.0235335
0.0234431
0.0233729
0.0233226
0.023292
0.0232808
0.168142
0.0605004
0.0389309
0.0324522
0.0297902
0.0285414
0.0279428
0.0276668
0.027548
0.027496
0.0274605
0.0274135
0.0273405
0.0272351
0.0270964
0.0269263
0.0267287
0.0265085
0.0262709
0.026021
0.0257639
0.0255042
0.0252458
0.0249926
0.0247475
0.0245133
0.0242923
0.0240862
0.0238967
0.0237247
0.0235713
0.023437
0.0233222
0.0232272
0.0231521
0.0230967
0.0230609
0.0230443
0.165071
0.0593769
0.0387716
0.0323777
0.0296683
0.0283867
0.0277702
0.0274826
0.0273549
0.0272967
0.0272576
0.0272094
0.0271373
0.0270346
0.0268995
0.0267338
0.026541
0.0263255
0.0260923
0.0258465
0.0255929
0.0253359
0.0250797
0.0248278
0.0245833
0.0243491
0.0241272
0.0239197
0.023728
0.0235533
0.0233967
0.0232587
0.0231398
0.0230404
0.0229604
0.0229
0.0228589
0.0228368
0.163048
0.0571384
0.0385231
0.0322307
0.0295159
0.0282339
0.0276146
0.0273202
0.0271851
0.0271211
0.0270786
0.0270295
0.0269585
0.0268585
0.0267273
0.0265662
0.0263783
0.0261678
0.0259394
0.025698
0.0254482
0.0251945
0.0249407
0.0246906
0.0244471
0.0242131
0.0239908
0.0237822
0.0235887
0.0234117
0.0232521
0.0231106
0.0229878
0.022884
0.0227993
0.0227338
0.0226874
0.0226598
0.160835
0.05682
0.0382662
0.0320124
0.0293522
0.0280987
0.0274832
0.0271824
0.0270397
0.02697
0.0269245
0.0268747
0.0268051
0.026708
0.026581
0.0264247
0.026242
0.0260368
0.0258135
0.0255769
0.0253313
0.0250812
0.0248304
0.0245824
0.0243404
0.0241071
0.0238847
0.0236753
0.0234803
0.0233012
0.0231389
0.0229942
0.0228676
0.0227596
0.0226703
0.0225998
0.0225481
0.0225149
0.156284
0.0577787
0.0380806
0.0318291
0.0292395
0.0280035
0.0273811
0.0270698
0.026919
0.0268442
0.0267962
0.0267462
0.0266783
0.0265845
0.0264618
0.0263106
0.0261335
0.0259339
0.0257162
0.0254847
0.0252438
0.0249978
0.0247503
0.0245049
0.0242647
0.0240325
0.0238105
0.0236007
0.0234046
0.0232237
0.023059
0.0229112
0.0227811
0.0226689
0.0225751
0.0224996
0.0224425
0.0224036
0.150897
0.0581996
0.0379534
0.0317794
0.0292039
0.0279452
0.0273034
0.0269804
0.0268228
0.0267442
0.0266946
0.0266451
0.0265794
0.0264891
0.0263712
0.0262255
0.0260543
0.0258608
0.0256491
0.0254233
0.0251876
0.0249461
0.0247025
0.0244601
0.024222
0.0239913
0.0237701
0.0235603
0.0233634
0.023181
0.0230141
0.0228635
0.0227299
0.0226138
0.0225154
0.0224349
0.0223724
0.0223278
0.146714
0.0572652
0.0378262
0.0317975
0.0291839
0.0278947
0.0272404
0.0269124
0.0267516
0.0266709
0.0266207
0.0265723
0.0265094
0.0264234
0.0263108
0.0261712
0.0260065
0.0258197
0.0256145
0.025395
0.0251652
0.0249288
0.0246894
0.0244504
0.0242149
0.0239863
0.0237662
0.0235566
0.0233592
0.0231755
0.0230065
0.0228532
0.0227163
0.0225962
0.0224933
0.0224079
0.02234
0.0222895
0.143797
0.0546473
0.037714
0.0317721
0.0291229
0.0278368
0.0271919
0.0268675
0.0267065
0.0266251
0.0265754
0.0265291
0.0264699
0.0263889
0.0262827
0.0261502
0.0259929
0.0258135
0.025615
0.0254006
0.0251751
0.0249427
0.0247069
0.0244709
0.0242381
0.0240116
0.0237929
0.023584
0.0233867
0.0232024
0.0230322
0.0228771
0.0227377
0.0226146
0.0225081
0.0224186
0.0223461
0.0222905
0.141792
0.0542582
0.0375491
0.0315964
0.0290235
0.0277927
0.0271685
0.0268479
0.0266867
0.0266059
0.0265585
0.0265161
0.0264622
0.0263874
0.0262867
0.0261595
0.0260076
0.0258338
0.0256413
0.025434
0.0252154
0.0249893
0.0247593
0.0245284
0.0243
0.0240769
0.0238605
0.0236529
0.023456
0.0232711
0.0230995
0.0229422
0.0227998
0.022673
0.0225622
0.0224676
0.0223896
0.0223281
0.135999
0.0549808
0.0371289
0.0313579
0.0289687
0.0277888
0.0271722
0.0268524
0.026692
0.0266129
0.0265681
0.0265292
0.0264795
0.0264099
0.0263164
0.0261976
0.0260544
0.0258898
0.0257067
0.0255086
0.0252986
0.02508
0.0248558
0.0246302
0.0244069
0.0241871
0.0239731
0.023767
0.0235706
0.0233855
0.0232128
0.0230536
0.0229085
0.0227783
0.0226634
0.022564
0.0224803
0.0224124
0.129137
0.0550324
0.0368933
0.0313593
0.0290038
0.0278185
0.0271983
0.0268791
0.0267223
0.0266477
0.0266081
0.0265754
0.0265333
0.0264725
0.0263886
0.0262804
0.026148
0.0259931
0.0258189
0.025629
0.0254267
0.025215
0.0249971
0.0247768
0.024558
0.0243419
0.0241306
0.0239263
0.0237308
0.0235456
0.023372
0.023211
0.0230635
0.02293
0.022811
0.0227068
0.0226176
0.0225437
0.124637
0.0533351
0.0367743
0.0314369
0.0290394
0.0278489
0.0272392
0.0269328
0.026786
0.0267202
0.0266892
0.0266652
0.0266317
0.02658
0.0265055
0.0264068
0.0262842
0.0261392
0.0259747
0.0257939
0.0256
0.025396
0.0251848
0.0249702
0.0247565
0.0245444
0.0243361
0.0241338
0.0239394
0.0237543
0.0235799
0.0234173
0.0232673
0.0231306
0.0230076
0.0228986
0.0228039
0.0227238
0.121883
0.0513642
0.036737
0.0314012
0.0290137
0.0278701
0.0272951
0.0270121
0.0268808
0.0268267
0.026806
0.0267923
0.0267695
0.0267287
0.0266651
0.0265773
0.0264656
0.0263315
0.0261775
0.0260066
0.0258218
0.0256262
0.0254223
0.0252141
0.0250058
0.024798
0.0245929
0.0243928
0.0241994
0.0240146
0.0238396
0.0236755
0.0235232
0.0233833
0.0232563
0.0231426
0.0230423
0.0229559
0.11743
0.0510772
0.0364538
0.0311649
0.0289697
0.0279084
0.0273807
0.027121
0.0270063
0.0269666
0.0269593
0.0269582
0.0269486
0.0269213
0.0268703
0.026795
0.0266955
0.0265733
0.0264308
0.0262708
0.026096
0.0259095
0.0257136
0.0255122
0.0253097
0.0251063
0.0249045
0.0247066
0.0245144
0.0243298
0.0241542
0.0239887
0.0238342
0.0236914
0.0235607
0.0234423
0.0233366
0.0232439
0.110334
0.0509598
0.0358758
0.0310379
0.0289978
0.0279989
0.0274947
0.0272562
0.027162
0.0271414
0.0271504
0.0271659
0.0271713
0.0271594
0.0271243
0.0270631
0.0269773
0.0268684
0.0267386
0.0265904
0.0264267
0.0262501
0.0260629
0.0258688
0.0256723
0.0254735
0.025275
0.0250791
0.0248879
0.0247034
0.0245273
0.0243606
0.0242044
0.0240591
0.0239251
0.0238025
0.0236917
0.0235929
0.104789
0.0497213
0.0355763
0.0310609
0.0290642
0.0280875
0.0276176
0.027413
0.027348
0.0273518
0.0273815
0.0274175
0.0274419
0.0274466
0.0274293
0.0273856
0.0273151
0.0272209
0.027105
0.02697
0.0268184
0.0266527
0.0264749
0.0262887
0.0260984
0.0259042
0.0257087
0.0255144
0.0253239
0.0251394
0.0249628
0.0247954
0.0246382
0.0244914
0.0243552
0.0242295
0.0241143
0.0240101
0.10061
0.0478735
0.0354516
0.031017
0.0290568
0.0281561
0.0277523
0.0275958
0.0275675
0.0275976
0.0276557
0.0277158
0.027763
0.0277888
0.0277892
0.0277656
0.0277133
0.0276353
0.0275348
0.0274143
0.0272761
0.0271225
0.0269551
0.0267773
0.0265934
0.0264036
0.0262105
0.0260172
0.0258268
0.0256421
0.0254654
0.0252983
0.0251416
0.0249954
0.0248592
0.0247324
0.0246147
0.0245065
0.0946383
0.0471388
0.0350403
0.0307518
0.0290209
0.0282487
0.027918
0.0278104
0.0278205