/*--------------------------------*- C++ -*----------------------------------*\
  =========                 |
  \\      /  F ield         | OpenFOAM: The Open Source CFD Toolbox
   \\    /   O peration     | Website:  https://openfoam.org
    \\  /    A nd           | Version:  9
     \\/     M anipulation  |
\*---------------------------------------------------------------------------*/
FoamFile
{
    format      ascii;
    class       volScalarField;
    location    "86400";
    object      k;
}
// * * * * * * * * * * * * * * * * * * * * * * * * * * * * * * * * * * * * * //

dimensions      [0 2 -2 0 0 0 0];

internalField   nonuniform List<scalar> 
15450
(
0.00186795
0.00194265
0.00190966
0.00180154
0.00162585
0.00143809
0.00126486
0.00129166
0.00165204
0.00270051
0.00374629
0.00419599
0.00429156
0.00446301
0.00652023
0.00731491
0.00753956
0.00779788
0.00868046
0.0102591
0.012012
0.01395
0.0169378
0.0203183
0.0214994
0.0221254
0.0228786
0.0249781
0.0285246
0.0305825
0.031512
0.0331142
0.0366122
0.0413176
0.0432133
0.0424354
0.03986
0.0399902
0.00265029
0.00290308
0.00278071
0.00248513
0.00222075
0.00203666
0.00206407
0.00240568
0.00325851
0.00446305
0.00580803
0.00632223
0.00623303
0.00765641
0.0113038
0.0119686
0.011351
0.0105189
0.0105669
0.0115279
0.0131122
0.0146175
0.0169156
0.0203544
0.0225777
0.0230434
0.0232163
0.0241415
0.0269231
0.029947
0.0305242
0.0305517
0.0313025
0.0336035
0.0341057
0.0338018
0.0305608
0.0259057
0.00330677
0.00355343
0.00340751
0.00310853
0.00298221
0.00315709
0.00383701
0.00521444
0.00675363
0.0078887
0.00875739
0.00914816
0.0100079
0.013018
0.0150426
0.015164
0.0135585
0.012919
0.0132101
0.0143909
0.0152507
0.0162966
0.0189483
0.0236931
0.0293092
0.030555
0.0302955
0.0298926
0.0314781
0.0364425
0.0396912
0.0394744
0.0379393
0.0374016
0.03806
0.0402571
0.0397334
0.0355135
0.00380966
0.00424036
0.00420195
0.00407877
0.00433126
0.0053797
0.00722106
0.00885017
0.00947696
0.00968814
0.0102022
0.0114344
0.0138915
0.0170064
0.018552
0.018885
0.0180569
0.0174358
0.0175792
0.0188389
0.0199056
0.0210112
0.0241297
0.0293953
0.0353209
0.037732
0.0376034
0.0372496
0.0378597
0.0411676
0.0449916
0.0453766
0.0440844
0.0427204
0.0427437
0.0439868
0.0446284
0.0426854
0.00417248
0.00524197
0.00549943
0.00570011
0.00668553
0.00870443
0.0105405
0.0110678
0.0105679
0.010307
0.0111782
0.0139863
0.0178764
0.0204377
0.0219625
0.0228388
0.0229151
0.0226835
0.0229263
0.0243082
0.0257714
0.0271156
0.0297382
0.0338045
0.0383345
0.0414534
0.0419643
0.0417359
0.0420153
0.0439155
0.0465492
0.0478115
0.0474529
0.0461146
0.045805
0.0461816
0.0471745
0.0468725
0.00432769
0.00677799
0.00742399
0.0080733
0.00975669
0.0118555
0.0125826
0.0121964
0.0111248
0.0110127
0.0126164
0.0168712
0.0213324
0.0237834
0.0252682
0.0266379
0.0274054
0.0276873
0.0281046
0.029388
0.0310031
0.0323332
0.0342368
0.0370945
0.0403247
0.0431783
0.0443767
0.044579
0.0448645
0.0459278
0.0476106
0.0490189
0.0492562
0.0487915
0.0485085
0.0486737
0.0493859
0.0495939
0.00488697
0.00884722
0.00990184
0.0108882
0.0127415
0.0139392
0.0140159
0.0130052
0.0123569
0.0126374
0.0152419
0.0197954
0.0241407
0.0268241
0.0284907
0.0299995
0.0312379
0.0320243
0.0326724
0.0337701
0.0352664
0.0366514
0.0381129
0.0400484
0.0422791
0.0444106
0.045922
0.0466386
0.0471161
0.0478617
0.048978
0.0501307
0.0507424
0.0508674
0.0509184
0.0511522
0.0516591
0.052028
0.00595469
0.0111799
0.0126689
0.0136724
0.0150981
0.01559
0.0153443
0.0146302
0.0144579
0.0154352
0.0183863
0.0225814
0.0265564
0.0294223
0.0313916
0.0330442
0.0344985
0.035629
0.0365367
0.037572
0.0388587
0.0401796
0.0414888
0.0429461
0.0445394
0.0461107
0.0474384
0.048386
0.0490808
0.049787
0.0506396
0.051544
0.0522712
0.0527425
0.0530817
0.0534489
0.0539185
0.0543537
0.00690665
0.0136325
0.0153931
0.016174
0.0170007
0.0171618
0.0169436
0.0167592
0.017103
0.0186454
0.0215379
0.025224
0.0287943
0.0316962
0.0339122
0.035735
0.0373277
0.0386678
0.039788
0.0408665
0.0420329
0.0432439
0.0444505
0.0456839
0.0469419
0.0481624
0.0492651
0.0501925
0.0509708
0.0516988
0.0524562
0.0532314
0.0539436
0.0545441
0.0550579
0.055548
0.0560529
0.056524
0.00791846
0.0159791
0.0178299
0.0183466
0.0186974
0.0187818
0.0188183
0.0191259
0.0200434
0.0218607
0.0245576
0.0277811
0.0309838
0.0338057
0.0361459
0.0381084
0.039811
0.0412842
0.042554
0.0437111
0.044848
0.0459852
0.0471084
0.0482153
0.0492973
0.050326
0.0512705
0.0521177
0.0528833
0.0536074
0.054325
0.055039
0.055723
0.0563566
0.0569446
0.0575071
0.0580554
0.058566
0.00897842
0.0180706
0.0199759
0.0202549
0.0202684
0.0204099
0.0208116
0.0216222
0.0229627
0.0249187
0.0274346
0.0302975
0.0331856
0.0358636
0.0382172
0.040254
0.0420327
0.0435911
0.0449581
0.0461863
0.0473363
0.0484411
0.0495077
0.0505367
0.0515216
0.0524468
0.0532997
0.0540818
0.0548101
0.055509
0.0561963
0.056875
0.0575359
0.058171
0.0587819
0.0593751
0.0599501
0.0604911
0.0100027
0.0198361
0.0217889
0.0219208
0.0217918
0.0220534
0.0228321
0.0240646
0.0257139
0.0277622
0.0301571
0.0327671
0.0354046
0.037919
0.040214
0.0422586
0.0440699
0.045674
0.0470966
0.0483734
0.0495447
0.0506403
0.0516753
0.0526575
0.0535861
0.0544542
0.0552573
0.0560006
0.0566991
0.0573719
0.0580326
0.0586852
0.0593265
0.0599534
0.0605663
0.0611673
0.0617527
0.0623112
0.0109045
0.0212541
0.0233053
0.0234115
0.0232604
0.0236829
0.0247921
0.0263605
0.0282426
0.0303726
0.032704
0.0351514
0.0376037
0.0399664
0.0421691
0.0441743
0.0459779
0.0475925
0.0490375
0.0503384
0.0515235
0.0526172
0.0536357
0.0545907
0.0554864
0.0563224
0.057099
0.0578218
0.0585032
0.0591582
0.0597986
0.0604307
0.0610551
0.0616707
0.0622777
0.0628762
0.0634626
0.0640286
0.0116716
0.0223664
0.0245805
0.0247491
0.0246634
0.0252724
0.0266527
0.0284797
0.0305415
0.0327495
0.0350571
0.0374067
0.03973
0.041968
0.0440732
0.046015
0.0477829
0.0493813
0.0508232
0.0521274
0.0533148
0.0544049
0.0554131
0.0563519
0.0572286
0.0580467
0.0588091
0.0595218
0.0601951
0.0608402
0.0614663
0.0620827
0.0626923
0.0632959
0.0638938
0.0644856
0.0650682
0.0656359
0.0123267
0.0232201
0.0256446
0.0259494
0.0259963
0.0268065
0.0284023
0.0304235
0.0326251
0.0349035
0.0372098
0.0395024
0.0417381
0.0438798
0.0458974
0.04777
0.0494883
0.0510539
0.0524758
0.0537682
0.0549475
0.0560296
0.0570284
0.0579563
0.0588219
0.0596308
0.0603868
0.0610938
0.0617642
0.062406
0.0630188
0.0636215
0.0642175
0.0648086
0.0653956
0.0659782
0.0665545
0.0671204
0.0128624
0.0238424
0.0265087
0.0270393
0.0272739
0.0282771
0.030043
0.0322075
0.0345152
0.0368521
0.039166
0.0414247
0.0436
0.0456687
0.047613
0.0494205
0.0510861
0.0526115
0.0540042
0.0552758
0.0564397
0.0575095
0.0584976
0.0594161
0.0602749
0.0610816
0.0618392
0.0625385
0.0632076
0.0638306
0.0644332
0.0650306
0.065622
0.0662089
0.0667923
0.067372
0.0679467
0.0685137
0.0133307
0.0242939
0.0272212
0.0280165
0.0284856
0.0296759
0.031579
0.0338486
0.0362339
0.0386152
0.0409378
0.0431743
0.0453056
0.0473181
0.0492022
0.0509525
0.052568
0.054052
0.0554122
0.0566586
0.0578031
0.0588574
0.0598326
0.0607397
0.0615914
0.0624014
0.063137
0.0638165
0.0644703
0.06509
0.0657019
0.0663064
0.0669044
0.0674975
0.0680864
0.068671
0.0692502
0.0698217
0.0137049
0.0245873
0.0277914
0.0288733
0.0296132
0.0309922
0.0330133
0.0353627
0.0378041
0.0402174
0.0425466
0.0447662
0.0468631
0.0488301
0.0506639
0.0523644
0.0539341
0.0553786
0.0567059
0.0579258
0.0590492
0.0600867
0.0610473
0.0619351
0.0627658
0.063551
0.064256
0.0649272
0.0655814
0.0662144
0.0668354
0.0674473
0.0680521
0.0686513
0.0692457
0.0698353
0.070419
0.070995
0.0140418
0.0248283
0.028305
0.0296731
0.0306857
0.0322405
0.0343601
0.0367686
0.0392483
0.0416801
0.0440075
0.0462068
0.0482693
0.050193
0.0519796
0.0536328
0.0551584
0.0565635
0.0578571
0.0590489
0.0601499
0.0611715
0.0621271
0.0629836
0.06378
0.0645341
0.065231
0.0659087
0.0665675
0.0672089
0.0678374
0.0684562
0.0690675
0.0696727
0.0702725
0.0708669
0.071455
0.0720354
0.0143487
0.0249929
0.0287221
0.0303746
0.0316606
0.0333865
0.0355901
0.0380366
0.0405311
0.0429621
0.0452758
0.0474501
0.0494789
0.0513633
0.0531076
0.0547183
0.0562032
0.0575711
0.0588318
0.0599956
0.061073
0.0620747
0.0630106
0.0638519
0.0646316
0.0653763
0.0660836
0.0667668
0.0674305
0.0680779
0.0687127
0.0693376
0.0699546
0.0705653
0.0711701
0.0717691
0.0723616
0.0729461
0.0146372
0.0251231
0.029086
0.0310085
0.0325517
0.0344361
0.0367129
0.0391866
0.0416857
0.044108
0.0464031
0.0485509
0.0505471
0.0523948
0.0541002
0.0556719
0.0571194
0.0584528
0.0596826
0.0608192
0.0618731
0.0628543
0.0637716
0.0646005
0.0653703
0.0661103
0.0668204
0.067507
0.0681745
0.0688266
0.0694663
0.0700963
0.0707184
0.0713339
0.0719433
0.0725466
0.0731432
0.0737318
0.0149177
0.025241
0.0294064
0.0315841
0.0333628
0.0353905
0.0377302
0.0402224
0.0427187
0.0451266
0.0473998
0.0495201
0.0514843
0.0532969
0.0549659
0.0565014
0.0579142
0.0592153
0.0604157
0.0615263
0.0625574
0.0635188
0.0644191
0.0652375
0.0660003
0.0667364
0.0674465
0.0681346
0.0688047
0.0694601
0.0701037
0.0707379
0.0713643
0.0719839
0.0725975
0.0732048
0.0738052
0.0743976
0.0151957
0.0253579
0.0296927
0.0321066
0.0340969
0.0362518
0.0386452
0.0411494
0.0436377
0.0460277
0.048277
0.0503688
0.0523013
0.0540801
0.0557147
0.0572161
0.0585962
0.0598667
0.0610392
0.0621249
0.0631341
0.0640765
0.0649609
0.0657697
0.0665263
0.0672583
0.0679668
0.0686551
0.0693265
0.0699841
0.0706306
0.0712681
0.071898
0.0725213
0.0731385
0.0737494
0.0743534
0.0749495
0.0154685
0.0254739
0.0299511
0.0325783
0.0347571
0.0370244
0.0394634
0.041975
0.0444521
0.0468216
0.0490452
0.0511078
0.0530089
0.054755
0.0563565
0.0578254
0.0591743
0.0604156
0.0615613
0.0626229
0.0636109
0.0645352
0.0654044
0.0662037
0.0669541
0.0676814
0.0683872
0.0690743
0.0697459
0.0704047
0.0710531
0.0716929
0.0723256
0.072952
0.0735723
0.0741865
0.0747939
0.0753935
0.0157367
0.0255813
0.0301774
0.0329986
0.0353463
0.0377136
0.0401921
0.0427076
0.0451709
0.047518
0.0497146
0.0517477
0.0536176
0.0553316
0.0569009
0.0583383
0.059657
0.0608701
0.0619899
0.0630282
0.0639956
0.064902
0.0657562
0.0665459
0.0672895
0.0680113
0.0687134
0.0693983
0.0700689
0.0707279
0.0713773
0.0720187
0.0726535
0.0732823
0.0739053
0.0745224
0.0751329
0.0757358
0.0160077
0.025667
0.0303715
0.0333701
0.0358688
0.0383252
0.040838
0.0433549
0.0458027
0.0481261
0.050295
0.052298
0.0541366
0.0558189
0.0573565
0.0587631
0.0600525
0.061238
0.0623325
0.0633479
0.064295
0.0651838
0.066023
0.0668025
0.0675386
0.0682542
0.0689515
0.0696332
0.0703019
0.0709601
0.0716095
0.0722518
0.0728879
0.0735185
0.0741438
0.0747634
0.0753767
0.0759828
0.0162758
0.0257263
0.0305449
0.0336992
0.0363297
0.0388644
0.0414075
0.0439241
0.0463554
0.0486543
0.0507947
0.0527672
0.0545743
0.0562248
0.0577311
0.0591074
0.0603679
0.0615264
0.062596
0.0635888
0.0645158
0.0653869
0.0662111
0.0669796
0.0677075
0.068416
0.0691077
0.0697852
0.0704511
0.0711074
0.071756
0.0723983
0.0730351
0.073667
0.0742939
0.0749157
0.0755315
0.0761406
0.016506
0.0257714
0.0306999
0.0339852
0.0367302
0.0393353
0.0419058
0.0444214
0.0468357
0.0491095
0.0512207
0.0531622
0.0549375
0.0565562
0.0580314
0.0593776
0.0606096
0.0617415
0.0627865
0.063757
0.064664
0.0655174
0.0663261
0.0670832
0.067802
0.0685026
0.0691878
0.0698603
0.0705225
0.0711762
0.0718231
0.0724646
0.0731013
0.0737338
0.0743619
0.0749854
0.0756035
0.0762154
0.0166953
0.0258024
0.0308095
0.0342153
0.0370682
0.0397403
0.0423374
0.0448519
0.047249
0.0494972
0.0515788
0.0534888
0.055232
0.0568189
0.0582631
0.0595796
0.0607834
0.061889
0.0629097
0.063858
0.064745
0.0655807
0.0663737
0.0671185
0.0678276
0.0685196
0.0691975
0.0698641
0.0705219
0.0711725
0.0718173
0.0724573
0.0730934
0.0737258
0.0743545
0.0749791
0.0755989
0.076213
0.0169095
0.0258001
0.0308591
0.0343883
0.0373477
0.0400843
0.0427066
0.0452196
0.0475993
0.0498217
0.0518733
0.0537516
0.0554626
0.0570177
0.0584311
0.0597183
0.0608943
0.0619739
0.0629706
0.0638966
0.0647638
0.0655822
0.066362
0.0670966
0.0677969
0.0684808
0.0691516
0.0698119
0.0704641
0.0711099
0.071751
0.0723885
0.0730229
0.0736545
0.0742832
0.0749086
0.0755298
0.076146
0.0171571
0.0257634
0.0308815
0.034527
0.0375814
0.0403743
0.043018
0.0455281
0.04789
0.0500863
0.0521078
0.0539543
0.0556332
0.0571568
0.0585399
0.059798
0.0609468
0.0620006
0.0629742
0.0638824
0.0647335
0.0655367
0.0662999
0.0670202
0.0677081
0.0683809
0.0690419
0.0696938
0.0703389
0.0709792
0.0716159
0.0722502
0.0728824
0.0735128
0.0741411
0.0747669
0.0753894
0.0760078
0.0173582
0.0256799
0.0309118
0.0346524
0.0377786
0.0406148
0.0432744
0.0457798
0.0481234
0.0502936
0.052285
0.0541
0.0557472
0.0572397
0.058593
0.0598223
0.0609458
0.0619797
0.0629343
0.0638205
0.0646499
0.0654331
0.0661791
0.0668858
0.067562
0.0682243
0.0688758
0.0695195
0.0701576
0.070792
0.071424
0.0720545
0.072684
0.0733124
0.0739398
0.0745654
0.0751887
0.0758085
0.0174623
0.0255962
0.0309378
0.0347539
0.0379337
0.0408043
0.0434766
0.0459762
0.0483014
0.0504458
0.0524075
0.0541914
0.0558075
0.0572692
0.0585944
0.0598023
0.0609039
0.0619116
0.0628407
0.0637041
0.0645141
0.0652799
0.0660103
0.0667035
0.0673678
0.0680189
0.0686605
0.0692954
0.0699258
0.0705537
0.0711803
0.0718063
0.0724323
0.0730583
0.0736841
0.0743091
0.0749326
0.0755536
0.0175183
0.025533
0.0309324
0.0347985
0.0380354
0.0409402
0.0436249
0.0461186
0.0484256
0.0505446
0.0524774
0.0542308
0.0558173
0.0572551
0.0585575
0.0597369
0.0608098
0.0617925
0.0626997
0.0635431
0.0643344
0.0650831
0.065798
0.0664779
0.0671297
0.0677693
0.0684004
0.0690259
0.0696482
0.0702689
0.0708893
0.0715103
0.0721322
0.0727551
0.0733788
0.0740027
0.074626
0.0752478
0.0176045
0.0254839
0.0308709
0.0347924
0.0380848
0.0410255
0.0437219
0.0462092
0.048498
0.0505923
0.0524971
0.0542247
0.0557886
0.0571987
0.0584704
0.059622
0.0606709
0.0616314
0.0625175
0.0633414
0.0641143
0.0648461
0.0655457
0.0662144
0.0668522
0.0674796
0.0680997
0.0687153
0.0693287
0.0699417
0.0705555
0.0711708
0.071788
0.0724073
0.0730283
0.0736505
0.0742731
0.0748952
0.0178314
0.0254094
0.0307658
0.0347547
0.038097
0.0410698
0.043773
0.0462511
0.0485204
0.0505922
0.052477
0.0541802
0.0557128
0.0570925
0.0583385
0.0594664
0.0604925
0.0614316
0.0622974
0.0631023
0.0638571
0.0645717
0.0652542
0.0659133
0.0665402
0.0671536
0.067762
0.0683673
0.0689715
0.0695762
0.0701828
0.0707918
0.0714039
0.0720189
0.0726367
0.0732567
0.0738782
0.0745002
0.0179891
0.0252782
0.0306742
0.0347155
0.0380899
0.0410726
0.0437767
0.0462474
0.048504
0.0505571
0.0524134
0.0540855
0.055591
0.0569462
0.0581681
0.0592733
0.0602778
0.0611964
0.0620427
0.062829
0.0635664
0.0642642
0.0649311
0.065574
0.0661918
0.0667937
0.0673907
0.0679855
0.0685801
0.0691762
0.069775
0.0703773
0.0709836
0.0715938
0.0722079
0.0728252
0.073445
0.0740663
0.0180039
0.0251085
0.0306093
0.0346781
0.0380654
0.0410529
0.0437526
0.0462108
0.048447
0.0504728
0.052302
0.0539496
0.0554309
0.0567627
0.0579621
0.0590458
0.0600298
0.0609288
0.0617564
0.0625249
0.0632452
0.0639268
0.0645783
0.0652067
0.0658128
0.0664033
0.0669891
0.0675732
0.0681579
0.0687449
0.0693356
0.0699307
0.0705307
0.0711357
0.0717454
0.0723595
0.0729771
0.0735974
0.0179821
0.0249587
0.0305339
0.0346103
0.0380045
0.0409923
0.043684
0.0461257
0.0483409
0.0503452
0.052152
0.0537765
0.0552352
0.056545
0.0577233
0.0587868
0.0597513
0.0606316
0.0614414
0.0621927
0.0628966
0.0635625
0.0641989
0.0648132
0.0654069
0.0659858
0.0665603
0.0671337
0.0677082
0.0682858
0.0688679
0.0694554
0.0700486
0.0706478
0.0712528
0.0718631
0.072478
0.0730966
0.0179825
0.0248536
0.0304002
0.0344868
0.0378915
0.0408828
0.0435693
0.0459989
0.0481969
0.0501809
0.0519664
0.0535694
0.0550068
0.0562961
0.0574546
0.058499
0.0594451
0.0603078
0.0611005
0.0618354
0.0625233
0.063174
0.0637958
0.0643961
0.0649771
0.0655443
0.0661075
0.0666698
0.067234
0.067802
0.0683751
0.0689544
0.0695405
0.0701334
0.0707331
0.071339
0.0719507
0.0725672
0.0180601
0.0247804
0.0302372
0.0343295
0.037746
0.0407406
0.043421
0.0458376
0.0480184
0.0499829
0.0517482
0.053331
0.0547486
0.0560187
0.0571587
0.0581851
0.059114
0.0599599
0.0607363
0.0614554
0.0621281
0.0627639
0.0633714
0.0639579
0.0645262
0.0650816
0.0656333
0.0661846
0.0667382
0.0672961
0.06786
0.0684309
0.0690093
0.0695954
0.0701893
0.0707905
0.0713984
0.0720122
0.0182097
0.0246753
0.0300691
0.0341609
0.0375817
0.0405733
0.0432437
0.0456454
0.0478087
0.0497545
0.0515005
0.0530643
0.0544634
0.0557156
0.0568381
0.0578478
0.0587604
0.0595905
0.0603514
0.0610554
0.0617133
0.0623348
0.0629282
0.0635011
0.0640568
0.0646004
0.0651405
0.0656806
0.0662234
0.0667712
0.0673255
0.0678875
0.0684578
0.0690367
0.0696243
0.0702202
0.0708238
0.0714344
0.0182245
0.0244851
0.0298944
0.0339903
0.0374039
0.0403844
0.0430403
0.0454255
0.047571
0.0494984
0.0512262
0.052772
0.0541538
0.0553892
0.0564956
0.0574895
0.0583868
0.0592019
0.0599482
0.0606378
0.0612815
0.061889
0.0624687
0.0630282
0.0635713
0.0641032
0.0646316
0.0651604
0.0656923
0.0662296
0.0667741
0.0673269
0.0678887
0.06846
0.0690408
0.0696309
0.0702296
0.0708364
0.0181841
0.0242344
0.0297106
0.0338071
0.0372088
0.0401734
0.0428123
0.0451801
0.047308
0.0492177
0.050928
0.052457
0.0538225
0.0550422
0.0561334
0.0571127
0.0579955
0.0587965
0.0595289
0.0602047
0.0608348
0.0614288
0.0619952
0.0625415
0.0630721
0.0635922
0.0641091
0.0646264
0.0651473
0.065674
0.0662083
0.0667516
0.0673046
0.0678678
0.0684414
0.0690251
0.0696185
0.0702209
0.0181027
0.0240266
0.0295079
0.0336022
0.0369908
0.0399389
0.042561
0.0449118
0.0470224
0.048915
0.0506087
0.0521217
0.0534719
0.054677
0.0557541
0.0567195
0.0575889
0.0583765
0.0590957
0.0597584
0.0603754
0.0609564
0.0615098
0.0620432
0.0625615
0.0630699
0.0635752
0.0640811
0.0645907
0.0651066
0.0656306
0.066164
0.0667079
0.0672626
0.0678285
0.0684054
0.0689929
0.0695904
0.018086
0.0238971
0.0292989
0.0333763
0.0367495
0.0396825
0.0422888
0.044623
0.0467168
0.0485929
0.0502708
0.0517687
0.0531046
0.0542959
0.0553597
0.0563123
0.057169
0.0579441
0.0586508
0.059301
0.0599054
0.0604739
0.0610147
0.0615354
0.0620416
0.0625384
0.0630321
0.0635265
0.0640249
0.0645298
0.0650432
0.0655665
0.0661009
0.0666468
0.0672046
0.0677741
0.0683552
0.0689472
0.0181233
0.0238019
0.0290972
0.0331342
0.0364888
0.0394073
0.0419985
0.0443167
0.0463941
0.0482542
0.0499169
0.0514005
0.0527228
0.0539012
0.0549526
0.0558931
0.0567379
0.0575012
0.0581961
0.0588344
0.0594269
0.0599832
0.0605118
0.0610203
0.0615145
0.0619998
0.0624819
0.0629649
0.063452
0.0639458
0.0644484
0.0649614
0.0654859
0.0660226
0.0665718
0.0671336
0.0677078
0.0682937
0.0181564
0.02366
0.0288747
0.032875
0.0362128
0.0391178
0.0416939
0.0439957
0.0460568
0.0479013
0.0495494
0.0510193
0.0523287
0.053495
0.0545348
0.0554639
0.0562976
0.0570498
0.0577336
0.0583606
0.0589417
0.0594864
0.0600032
0.0604996
0.0609821
0.0614561
0.0619268
0.0623983
0.062874
0.0633566
0.0638483
0.0643508
0.0648652
0.0653923
0.0659326
0.0664862
0.0670529
0.0676322
0.0181339
0.0233695
0.0286071
0.0326023
0.0359294
0.0388198
0.0413788
0.0436632
0.0457076
0.0475366
0.0491702
0.0506269
0.0519242
0.053079
0.0541079
0.0550265
0.0558498
0.0565916
0.0572649
0.0578813
0.0584515
0.0589851
0.0594906
0.0599754
0.0604463
0.0609092
0.0613686
0.0618287
0.0622931
0.0627645
0.0632451
0.0637369
0.0642409
0.0647582
0.0652891
0.0658341
0.0663928
0.066965
0.0180444
0.0230249
0.0283115
0.0323235
0.0356433
0.0385159
0.0410552
0.0433206
0.0453477
0.047161
0.0487807
0.0502246
0.0515103
0.0526544
0.0536731
0.054582
0.0553957
0.056128
0.0567915
0.057398
0.0579581
0.0584812
0.0589758
0.0594494
0.059909
0.060361
0.0608093
0.0612582
0.0617112
0.0621714
0.0626409
0.0631217
0.0636152
0.0641223
0.0646436
0.0651795
0.0657298
0.0662943
0.0178884
0.0227185
0.028047
0.0320632
0.0353601
0.0382054
0.0407202
0.0429648
0.0449742
0.0467723
0.0483785
0.0498108
0.051086
0.0522206
0.0532304
0.0541307
0.054936
0.0556597
0.0563146
0.056912
0.0574627
0.057976
0.0584605
0.0589237
0.059373
0.0598142
0.0602515
0.0606892
0.061131
0.0615798
0.0620381
0.0625079
0.0629906
0.0634872
0.0639985
0.0645249
0.0650663
0.0656226
0.0177919
0.0225972
0.0278019
0.0317723
0.0350377
0.0378599
0.0403572
0.0425873
0.0445837
0.0463699
0.0479657
0.0493885
0.0506552
0.0517818
0.0527841
0.053677
0.0544747
0.0551908
0.0558377
0.0564268
0.0569687
0.0574729
0.0579479
0.0584015
0.0588408
0.0592711
0.0596974
0.0601238
0.0605543
0.0609917
0.0614388
0.0618973
0.062369
0.062855
0.063356
0.0638725
0.0644046
0.0649522
0.0177622
0.0224814
0.0275705
0.0314842
0.0347217
0.0375276
0.0400103
0.0422255
0.0442073
0.04598
0.0475635
0.0489753
0.0502321
0.0513498
0.0523436
0.0532285
0.0540184
0.0547266
0.0553654
0.0559462
0.0564795
0.0569748
0.0574405
0.0578844
0.0583133
0.058733
0.0591483
0.0595638
0.059983
0.0604091
0.0608447
0.061292
0.0617526
0.0622276
0.062718
0.0632243
0.0637467
0.0642851
0.0177148
0.0222825
0.02729
0.0311705
0.034397
0.0371927
0.0396621
0.0418623
0.0438295
0.0455889
0.0471605
0.0485619
0.0498093
0.0509184
0.0519044
0.0527818
0.0535644
0.0542653
0.0548967
0.0554698
0.055995
0.0564818
0.0569387
0.0573732
0.0577923
0.0582016
0.0586063
0.0590109
0.0594189
0.0598338
0.0602581
0.0606941
0.0611434
0.0616073
0.0620868
0.0625826
0.0630948
0.0636236
0.0176272
0.0218999
0.0269548
0.03085
0.0340768
0.0368617
0.0393153
0.0414995
0.0434521
0.0451985
0.0467586
0.0481499
0.0493885
0.0504896
0.0514683
0.0523387
0.0531146
0.0538087
0.0544332
0.0549992
0.0555169
0.0559957
0.0564441
0.0568698
0.0572793
0.0576788
0.0580732
0.058467
0.0588642
0.0592679
0.0596809
0.0601055
0.0605434
0.0609961
0.0614646
0.0619495
0.0624512
0.0629699
0.0174452
0.0214911
0.0266188
0.0305422
0.033766
0.0365342
0.0389696
0.0411376
0.043076
0.04481
0.0463593
0.0477411
0.0489712
0.0500649
0.0510368
0.0519009
0.0526705
0.0533585
0.0539767
0.054536
0.0550467
0.0555181
0.0559586
0.0563758
0.0567763
0.0571662
0.0575506
0.0579341
0.0583206
0.0587133
0.0591151
0.0595284
0.0599549
0.0603962
0.0608534
0.0613272
0.0618181
0.0623262
0.0172531
0.0212001
0.0263264
0.0302536
0.0334584
0.036205
0.0386231
0.0407767
0.0427024
0.0444249
0.0459641
0.0473369
0.0485592
0.049646
0.0506116
0.0514698
0.0522339
0.0529163
0.0535287
0.054082
0.0545863
0.0550508
0.0554839
0.055893
0.056285
0.0566658
0.0570406
0.057414
0.05779
0.058172
0.0585627
0.0589647
0.0593798
0.0598097
0.0602554
0.0607179
0.0611976
0.0616948
0.0171094
0.0210382
0.0260888
0.0299689
0.033141
0.0358704
0.0382763
0.0404184
0.0423328
0.0440447
0.0455743
0.0469388
0.0481539
0.0492343
0.0501942
0.0510472
0.0518063
0.0524836
0.0530909
0.0536388
0.0541372
0.0545954
0.0550216
0.0554233
0.0558072
0.0561793
0.056545
0.0569087
0.0572745
0.0576459
0.0580257
0.0584165
0.0588203
0.0592387
0.0596728
0.0601238
0.0605921
0.061078
0.0170127
0.0209003
0.0258421
0.0296546
0.0328097
0.0355337
0.0379325
0.0400648
0.0419686
0.0436707
0.0451914
0.0465482
0.0477567
0.0488314
0.0497862
0.0506346
0.0513892
0.0520622
0.0526649
0.0532079
0.0537011
0.0541536
0.0545734
0.0549682
0.0553446
0.0557086
0.0560655
0.0564199
0.0567759
0.057137
0.0575062
0.057886
0.0582784
0.0586853
0.0591078
0.0595471
0.0600037
0.060478
0.0169098
0.020621
0.0255038
0.0293124
0.0324778
0.0352035
0.0375954
0.0397176
0.0416112
0.043304
0.0448166
0.0461665
0.047369
0.0484386
0.0493891
0.0502334
0.0509843
0.0516535
0.0522523
0.0527911
0.0532797
0.053727
0.0541412
0.0545297
0.0548991
0.0552555
0.0556041
0.0559497
0.0562963
0.0566474
0.0570061
0.0573751
0.0577564
0.0581518
0.0585626
0.05899
0.0594347
0.0598971
0.0167112
0.0201176
0.0251131
0.0289768
0.0321626
0.0348849
0.0372659
0.0393772
0.0412612
0.0429456
0.0444511
0.0457949
0.0469922
0.0480575
0.0490042
0.0498452
0.050593
0.0512591
0.0518547
0.05239
0.0528747
0.0533175
0.0537267
0.0541094
0.0544725
0.0548218
0.0551627
0.0554999
0.0558374
0.056179
0.0565276
0.056886
0.0572562
0.0576402
0.0580393
0.0584548
0.0588874
0.0593375
0.0164283
0.0196858
0.0247678
0.0286824
0.0318673
0.0345736
0.0369414
0.039043
0.0409191
0.0425965
0.0440959
0.0454345
0.0466275
0.0476892
0.048633
0.0494715
0.0502169
0.0508807
0.0514737
0.0520062
0.0524877
0.0529267
0.0533315
0.0537092
0.0540666
0.0544094
0.0547432
0.0550725
0.0554015
0.0557338
0.0560727
0.0564207
0.0567801
0.0571527
0.0575402
0.0579436
0.0583639
0.0588016
0.0161822
0.0194611
0.0245278
0.0284217
0.0315705
0.0342591
0.036619
0.038715
0.0405856
0.0422576
0.043752
0.0450864
0.0462761
0.0473352
0.0482768
0.0491135
0.0498574
0.0505196
0.0511109
0.0516414
0.0521204
0.0525564
0.0529575
0.0533309
0.0536831
0.0540202
0.0543473
0.0546693
0.0549903
0.0553139
0.0556434
0.0559813
0.0563301
0.0566916
0.0570674
0.0574588
0.0578666
0.0582916
0.0160151
0.0193607
0.0243357
0.0281282
0.0312495
0.0339382
0.0363003
0.0383949
0.0402618
0.0419296
0.0434203
0.0447517
0.0459391
0.0469965
0.0479369
0.0487728
0.049516
0.0501775
0.0507679
0.0512972
0.0517744
0.0522082
0.0526064
0.0529762
0.053324
0.0536559
0.0539772
0.0542924
0.0546059
0.0549213
0.0552417
0.05557
0.0559083
0.0562589
0.0566231
0.0570024
0.0573976
0.0578096
0.0158905
0.019218
0.0240137
0.0277703
0.0309142
0.0336225
0.0359909
0.0380845
0.0399484
0.0416132
0.0431015
0.0444312
0.0456175
0.0466744
0.0476147
0.0484507
0.0491941
0.0498558
0.0504463
0.0509752
0.0514516
0.051884
0.05228
0.0526468
0.052991
0.0533184
0.0536344
0.0539436
0.0542502
0.0545579
0.0548698
0.0551887
0.055517
0.0558567
0.0562094
0.0565765
0.0569591
0.0573579
0.0156651
0.0186521
0.0235575
0.0274026
0.0306008
0.0333249
0.0356932
0.0377838
0.0396454
0.0413088
0.0427964
0.0441258
0.0453123
0.0463699
0.0473112
0.0481485
0.0488932
0.0495561
0.0501475
0.050677
0.0511535
0.0515852
0.0519799
0.0523445
0.0526855
0.0530092
0.0533208
0.0536247
0.0539251
0.0542256
0.0545295
0.0548394
0.0551579
0.055487
0.0558284
0.0561834
0.0565532
0.0569385
0.0152997
0.0180834
0.0231475
0.0271029
0.030325
0.0330407
0.035402
0.0374905
0.0393523
0.0410166
0.0425053
0.0438361
0.0450244
0.0460839
0.0470276
0.0478673
0.0486144
0.0492796
0.049873
0.0504041
0.0508817
0.0513137
0.0517078
0.0520706
0.0524086
0.0527297
0.0530378
0.0533373
0.0536322
0.0539263
0.0542227
0.0545242
0.0548333
0.055152
0.055482
0.0558249
0.0561817
0.0565533
0.0149649
0.0178039
0.0229108
0.026873
0.0300524
0.0327502
0.0351106
0.0372032
0.0390691
0.0407368
0.0422286
0.0435625
0.0447541
0.0458172
0.0467645
0.0476079
0.0483587
0.0490275
0.0496241
0.050158
0.0506376
0.0510711
0.0514654
0.0518268
0.052163
0.0524833
0.052789
0.0530849
0.0533751
0.0536632
0.0539526
0.0542459
0.0545458
0.0548543
0.0551731
0.0555037
0.0558474
0.056205
0.0147137
0.0177419
0.022763
0.0265981
0.0297388
0.0324446
0.0348196
0.036923
0.038796
0.0404691
0.0419658
0.0433047
0.0445013
0.0455695
0.046522
0.0473707
0.0481267
0.0488004
0.0494016
0.0499395
0.0504226
0.0508587
0.0512549
0.0516175
0.0519549
0.0522748
0.0525787
0.0528714
0.0531572
0.0534397
0.0537223
0.0540077
0.0542984
0.0545966
0.054904
0.0552223
0.0555525
0.0558957
0.014575
0.017643
0.0224913
0.0262191
0.0293951
0.0321401
0.0345362
0.0366503
0.0385307
0.0402107
0.0417143
0.0430602
0.0442639
0.0453392
0.046299
0.0471548
0.0479177
0.0485981
0.0492056
0.0497493
0.0502374
0.0506777
0.0510771
0.0514426
0.0517828
0.0521033
0.0524063
0.0526966
0.0529786
0.053256
0.0535321
0.0538098
0.0540916
0.0543796
0.0546756
0.0549812
0.0552977
0.0556261
0.0143286
0.0170075
0.0218383
0.0257681
0.0290594
0.0318454
0.0342554
0.0363786
0.0382689
0.0399596
0.0414739
0.0428303
0.0440443
0.0451297
0.0460992
0.0469645
0.0477366
0.0484256
0.0490412
0.0495922
0.0500868
0.0505323
0.0509355
0.0513052
0.0516504
0.0519715
0.0522739
0.0525623
0.052841
0.0531137
0.0533837
0.0536539
0.0539269
0.0542047
0.0544892
0.054782
0.0550843
0.0553974
0.013814
0.0162988
0.0213993
0.0254808
0.0287932
0.0315736
0.0339876
0.0361228
0.0380273
0.0397322
0.04126
0.0426292
0.0438554
0.0449527
0.0459337
0.04681
0.0475926
0.0482916
0.0489164
0.0494757
0.0499776
0.0504295
0.0508377
0.0512113
0.0515588
0.0518812
0.0521835
0.0524705
0.0527462
0.0530145
0.0532786
0.0535415
0.0538056
0.0540731
0.0543459
0.0546255
0.0549132
0.0552103
0.0134029
0.0160581
0.0212025
0.0252541
0.0285075
0.0312814
0.0337126
0.0358694
0.0377942
0.0395172
0.0410617
0.0424467
0.043688
0.0447998
0.0457946
0.0466843
0.0474794
0.0481903
0.0488261
0.0493954
0.0499064
0.0503659
0.0507806
0.0511591
0.0515099
0.0518342
0.0521369
0.0524227
0.0526957
0.0529598
0.0532181
0.0534736
0.0537287
0.0539857
0.0542464
0.0545124
0.054785
0.0550654
0.0131628
0.0160342
0.0210426
0.0249147
0.0281565
0.0309678
0.033436
0.0356219
0.0375706
0.0393149
0.0408793
0.0422832
0.0435426
0.0446716
0.0456829
0.0465882
0.0473983
0.0481231
0.048772
0.0493532
0.0498749
0.0503438
0.0507662
0.0511506
0.0515055
0.0518321
0.0521355
0.0524203
0.0526906
0.0529503
0.0532026
0.0534506
0.0536966
0.0539428
0.0541911
0.0544429
0.0546996
0.0549625
0.0129158
0.0158218
0.0205991
0.0244608
0.0277923
0.0306641
0.0331687
0.0353822
0.0373561
0.0391247
0.0407124
0.0421386
0.0434193
0.0445686
0.0455993
0.046523
0.0473504
0.0480917
0.0487558
0.0493507
0.0498828
0.0503602
0.0507898
0.0511798
0.0515388
0.0518679
0.0521723
0.0524564
0.0527246
0.0529806
0.0532279
0.0534693
0.0537073
0.0539437
0.0541796
0.0544167
0.0546568
0.0549013
0.0124305
0.0150035
0.0199885
0.0240709
0.0274814
0.0303792
0.0329062
0.0351463
0.0371488
0.0389458
0.0405608
0.042013
0.0433185
0.0444914
0.0455444
0.0464893
0.0473371
0.0480957
0.0487736
0.0493812
0.0499266
0.0504166
0.0508568
0.0512551
0.0516199
0.0519524
0.0522578
0.0525408
0.0528059
0.053057
0.0532976
0.0535308
0.0537588
0.0539838
0.0542077
0.0544313
0.0546556
0.054881
0.0119489
0.0145453
0.0196607
0.0237956
0.0271762
0.0300788
0.0326343
0.0349097
0.0369473
0.0387776
0.0404242
0.0419064
0.0432404
0.0444403
0.0455191
0.046488
0.0473542
0.0481309
0.0488285
0.0494548
0.0500169
0.0505208
0.0509722
0.051379
0.0517493
0.0520848
0.0523906
0.0526716
0.0529327
0.0531783
0.053412
0.0536369
0.0538554
0.0540689
0.0542788
0.0544862
0.0546922
0.0548988
0.0116122
0.0143874
0.0194288
0.0234146
0.0267955
0.0297474
0.0323541
0.0346744
0.0367519
0.0386196
0.0403019
0.0418184
0.0431851
0.0444158
0.0455226
0.0465138
0.0474052
0.0482066
0.048926
0.0495715
0.0501506
0.0506692
0.0511327
0.0515487
0.0519247
0.0522626
0.0525676
0.0528453
0.0531011
0.0533398
0.0535657