/*--------------------------------*- C++ -*----------------------------------*\
  =========                 |
  \\      /  F ield         | OpenFOAM: The Open Source CFD Toolbox
   \\    /   O peration     | Website:  https://openfoam.org
    \\  /    A nd           | Version:  9
     \\/     M anipulation  |
\*---------------------------------------------------------------------------*/
FoamFile
{
    format      ascii;
    class       volScalarField;
    location    "86400";
    object      nut;
}
// * * * * * * * * * * * * * * * * * * * * * * * * * * * * * * * * * * * * * //

dimensions      [0 2 -1 0 0 0 0];

internalField   nonuniform List<scalar> 
15450
(
0.000134364
0.000139759
0.000137405
0.000129673
0.000117067
0.000103626
9.11448e-05
9.28857e-05
0.00011826
0.000193194
0.000269057
0.00030127
0.000308433
7.54586e-05
9.10741e-05
9.23355e-05
9.32566e-05
9.62092e-05
0.000105147
0.000116898
0.000126836
0.000139795
0.000158716
0.000168241
0.000161275
0.000162027
0.000167097
0.000182906
0.000199627
0.000192303
0.000194109
0.000203666
0.000221806
0.000232555
0.000212983
0.000199567
0.000189906
0.000200742
0.000190585
0.000232303
0.000242223
0.000240878
0.000225149
0.000194013
0.0001782
0.00016954
0.000184049
0.000222378
0.000258764
0.000211421
0.000144282
0.000131302
0.000215558
0.000234315
0.000218491
0.000187301
0.000172114
0.000179528
0.000196347
0.000194675
0.000211036
0.000276153
0.000339737
0.000347188
0.000305588
0.000271091
0.00031176
0.000391125
0.000421092
0.000373455
0.000306637
0.000324132
0.000393301
0.00065282
0.000586061
0.000460163
0.00023767
0.00027792
0.000293742
0.000299616
0.000289581
0.000269282
0.000251104
0.000266429
0.000277036
0.000268368
0.000244399
0.000211534
0.000218162
0.000304114
0.000374458
0.000384796
0.000341185
0.000312007
0.000288695
0.000295616
0.000300702
0.000299561
0.000336797
0.000448697
0.000610478
0.000647721
0.000612306
0.000550247
0.000599701
0.00078743
0.000928346
0.000919871
0.000802986
0.000774809
0.000954043
0.00136372
0.00146637
0.00131973
0.000273644
0.000305712
0.000333952
0.000347258
0.000337422
0.000328586
0.000334664
0.000326022
0.000308719
0.000279575
0.000259623
0.000279074
0.000377986
0.000516049
0.000577398
0.000594866
0.000575137
0.000538862
0.000498791
0.000503308
0.000515784
0.000517513
0.000587002
0.000750143
0.000947734
0.00104085
0.00104604
0.00103535
0.00107625
0.00127484
0.00150849
0.00155558
0.00155724
0.00156799
0.00176348
0.00200871
0.0021225
0.00209478
0.000299883
0.000323075
0.000380972
0.000392739
0.000383067
0.000386357
0.000383049
0.000371862
0.000329195
0.000302844
0.000310838
0.000409124
0.000607031
0.000753863
0.000824843
0.000855993
0.000857367
0.000835907
0.00080364
0.00081605
0.00085107
0.000876529
0.000948342
0.00109639
0.00127619
0.00142956
0.00147987
0.00154081
0.00162105
0.00180096
0.00202727
0.00215966
0.00227401
0.00235232
0.00252264
0.00263047
0.00275321
0.00278333
7.29176e-05
0.000330702
0.00043491
0.000442588
0.000441657
0.000446795
0.000440488
0.000409957
0.000362347
0.00035286
0.000409386
0.000599767
0.000857414
0.00101705
0.00110002
0.00115736
0.00117778
0.00117761
0.00116728
0.00118772
0.00123583
0.00128469
0.00136206
0.00148834
0.00164573
0.00182926
0.00193527
0.00204444
0.00218107
0.00236152
0.00257303
0.00276218
0.00290787
0.00305691
0.00320945
0.00328861
0.00339073
0.00342795
7.87395e-05
0.000394686
0.000508105
0.000509565
0.000513368
0.000516377
0.000505784
0.000464029
0.000448057
0.000468248
0.000602532
0.00083705
0.00110205
0.00129113
0.00139862
0.0014725
0.00152392
0.00155183
0.00156599
0.00159264
0.00165216
0.00172947
0.00182046
0.00193924
0.0020846
0.00226275
0.00242155
0.00257252
0.00274894
0.00294441
0.00315262
0.00335652
0.00352988
0.00369536
0.00384761
0.00393891
0.0040269
0.0040839
8.70976e-05
0.000461805
0.000590597
0.000587986
0.000596227
0.000600878
0.000590249
0.00058926
0.000605918
0.000687145
0.000864274
0.00110134
0.00135832
0.00156458
0.00170449
0.00180187
0.00187589
0.00193437
0.00198022
0.00203249
0.0021073
0.00220131
0.00231083
0.00243918
0.0025877
0.00276374
0.00294027
0.00312445
0.00332501
0.00353438
0.00374482
0.0039484
0.00413624
0.00430897
0.00445982
0.00456535
0.00465489
0.00472799
9.38205e-05
0.000530106
0.000672996
0.000673951
0.000692187
0.00070039
0.000717588
0.000763116
0.000818244
0.000957459
0.00115523
0.0013921
0.00164059
0.0018556
0.00201865
0.00214518
0.00224633
0.00233148
0.0024092
0.00249016
0.00258375
0.00269491
0.0028228
0.00296773
0.00312933
0.00330607
0.00349476
0.00369455
0.00390648
0.00412283
0.00433526
0.00453787
0.00472648
0.0048989
0.00504939
0.00516476
0.0052626
0.00534333
0.000100419
0.000596424
0.000751495
0.000771401
0.000794428
0.000824611
0.00088171
0.000966443
0.00107799
0.00125911
0.00146966
0.00170538
0.00194722
0.00216758
0.00235077
0.00250176
0.00262917
0.0027421
0.00284827
0.00295522
0.00307047
0.00320097
0.00334866
0.00350753
0.0036803
0.00386615
0.00406321
0.00427023
0.00448544
0.00470238
0.00491362
0.00511379
0.00529965
0.00546889
0.00561756
0.00573865
0.00584491
0.00593253
0.000106839
0.000654976
0.000833169
0.000872948
0.000906531
0.000967191
0.0010687
0.00119559
0.00136034
0.00157195
0.00179647
0.00203444
0.00227499
0.00249963
0.00269776
0.00286976
0.0030211
0.00315915
0.00329079
0.00342216
0.00355929
0.0037109
0.00387309
0.00404479
0.00422869
0.00442325
0.00462663
0.00483704
0.00505183
0.00526593
0.00547342
0.00566969
0.0058518
0.00601788
0.0061629
0.00628948
0.00639982
0.00649438
0.000112655
0.000705058
0.00091216
0.000976637
0.0010331
0.0011252
0.0012661
0.00143744
0.00164771
0.00188454
0.00212659
0.00237356
0.0026168
0.00284718
0.00305758
0.00324722
0.00341938
0.00357956
0.00373352
0.00388641
0.00404471
0.00421391
0.00438832
0.00457162
0.00476466
0.00496587
0.0051733
0.00538479
0.00559752
0.00580745
0.00601008
0.0062017
0.00637977
0.0065423
0.00668538
0.00681528
0.00692888
0.00702894
0.000117511
0.000746604
0.000988737
0.00108488
0.00117002
0.00129299
0.0014679
0.00168041
0.00192961
0.00218982
0.00245151
0.00271117
0.00296344
0.00320249
0.00342474
0.00362983
0.00382002
0.00399943
0.00417275
0.0043443
0.00452048
0.0047041
0.00488954
0.0050823
0.00528221
0.00548782
0.00569715
0.00590798
0.00611765
0.00632294
0.0065205
0.00670749
0.00688195
0.00704063
0.00718402
0.00731503
0.00743208
0.00753677
0.000121479
0.000781377
0.00106479
0.00119647
0.00131355
0.00146331
0.0016708
0.00192164
0.0021999
0.00248369
0.00276588
0.00304161
0.00330704
0.00355706
0.00379196
0.00401157
0.00421786
0.00441414
0.00460426
0.00479186
0.0049825
0.005178
0.00537312
0.00557324
0.00577805
0.00598614
0.00619557
0.00640421
0.00660992
0.00681021
0.00700271
0.00718534
0.00735656
0.00751266
0.00765679
0.00778959
0.00790972
0.00801874
0.000124769
0.000810252
0.00113917
0.00130923
0.00145633
0.00163447
0.00187227
0.00215609
0.00245797
0.00276407
0.00306633
0.0033592
0.00363913
0.00390363
0.00415225
0.00438624
0.00460754
0.00481903
0.00502396
0.00522547
0.00542799
0.00563328
0.00583665
0.00604244
0.00625065
0.00645985
0.00666801
0.0068729
0.0070734
0.00726774
0.00745511
0.00763384
0.0078026
0.00795803
0.00810347
0.00823848
0.00836232
0.00847593
0.000127414
0.000833837
0.00121094
0.00142255
0.0015993
0.00180607
0.00207087
0.00238159
0.00270411
0.00303044
0.00335164
0.0036618
0.00395751
0.00423706
0.00450038
0.00474892
0.00498471
0.00521036
0.00542875
0.00564258
0.00585523
0.00606867
0.00627892
0.00648902
0.00669955
0.00690919
0.00711568
0.0073147
0.00750815
0.00769833
0.00788233
0.00805859
0.00822598
0.00838197
0.0085294
0.00866688
0.00879427
0.00891215
0.000129654
0.000852862
0.00127902
0.00153132
0.00174068
0.0019758
0.00226618
0.00259745
0.00293882
0.0032832
0.00362179
0.00394858
0.00426025
0.00455536
0.00483374
0.00509707
0.00534722
0.00558652
0.00581751
0.00604256
0.00626415
0.00648442
0.00670016
0.00691306
0.00712458
0.00733451
0.00753613
0.00772988
0.0079214
0.00810999
0.00829214
0.00846707
0.00863281
0.0087895
0.00893819
0.00907729
0.00920712
0.00932817
0.000131435
0.000866946
0.00134023
0.00163493
0.0018788
0.00214273
0.00245686
0.00280562
0.00316328
0.00352321
0.00387739
0.00422004
0.0045478
0.00485903
0.00515337
0.00543223
0.00569709
0.00594994
0.00619298
0.0064283
0.00665784
0.00688366
0.00710363
0.00731652
0.00752536
0.0077311
0.00792684
0.0081185
0.00830898
0.0084958
0.00867678
0.00885085
0.00901602
0.00917443
0.0093243
0.00946545
0.00959809
0.00972259
0.000132983
0.000880431
0.00140338
0.00173878
0.0020158
0.00230487
0.00263868
0.00300064
0.00337192
0.00374616
0.00411567
0.00447442
0.00481862
0.00514565
0.00545576
0.00574932
0.00602758
0.00629231
0.00654553
0.00678929
0.00702552
0.00725695
0.00748403
0.00769314
0.00789473
0.00809488
0.00828828
0.00848092
0.00867115
0.00885728
0.00903784
0.00921119
0.00937772
0.00953738
0.00968899
0.0098326
0.00996835
0.0100966
0.000134345
0.00089191
0.00146047
0.00183664
0.00214709
0.00246252
0.0028156
0.00319099
0.0035744
0.0039598
0.00434016
0.00470978
0.00506491
0.00540254
0.00572373
0.00602805
0.00631661
0.00659102
0.00685316
0.00710491
0.00734805
0.00758479
0.00781479
0.00802628
0.00822765
0.00842814
0.00862483
0.00881884
0.00900949
0.00919571
0.00937614
0.0095502
0.00971845
0.00987956
0.0100333
0.0101797
0.0103189
0.0104511
0.000135587
0.000901675
0.00151404
0.00193056
0.0022735
0.00261451
0.00298544
0.00337316
0.00376724
0.00416226
0.00455198
0.00493078
0.00529384
0.00564218
0.00597322
0.00628714
0.00658491
0.00686797
0.00713801
0.0073967
0.00764574
0.00788664
0.00811905
0.00833353
0.00853704
0.00873928
0.00893826
0.00913379
0.00932537
0.00951219
0.00969317
0.00986916
0.0100388
0.0102019
0.0103583
0.0105078
0.0106507
0.0107871
0.000136785
0.000911059
0.00156426
0.00202062
0.00239609
0.00276152
0.00314904
0.00354785
0.00395127
0.00435433
0.00475078
0.00513615
0.00550872
0.00586558
0.00620509
0.00652737
0.00683321
0.00712386
0.00740082
0.00766559
0.00791987
0.00816435
0.00839954
0.00861743
0.00882404
0.00902865
0.00922983
0.00942711
0.00962004
0.00980771
0.00999073
0.0101683
0.0103399
0.0105054
0.0106646
0.0108175
0.0109643
0.0111051
0.000137981
0.000919664
0.00161132
0.00210618
0.00251304
0.0029009
0.00330471
0.00371395
0.00412484
0.00453391
0.00493675
0.00533013
0.00571003
0.0060738
0.00642043
0.00674983
0.00706262
0.00735986
0.00764283
0.00791321
0.00817183
0.00841979
0.00865808
0.00887968
0.00908983
0.00929719
0.00950073
0.00970001
0.00989439
0.0100841
0.0102691
0.0104486
0.0106225
0.0107907
0.0109531
0.0111097
0.0112605
0.0114058
0.000139153
0.000927534
0.00165519
0.00218724
0.00262455
0.00303406
0.00345155
0.0038702
0.00428857
0.00470451
0.00511422
0.0055131
0.00589836
0.0062678
0.00662031
0.00695569
0.00727432
0.00757739
0.00786573
0.00814059
0.00840325
0.00865482
0.00889625
0.00912168
0.00933562
0.00954598
0.00975208
0.00995346
0.01015
0.0103421
0.0105291
0.0107109
0.0108874
0.0110586
0.0112244
0.0113848
0.0115399
0.0116898
0.000140274
0.000933994
0.0016957
0.00226363
0.0027304
0.00316116
0.00359263
0.0040205
0.00444609
0.00486751
0.00528164
0.00568486
0.00607445
0.00644843
0.00680574
0.00714625
0.00746994
0.00777756
0.00807034
0.00834941
0.00861589
0.00887091
0.00911549
0.00934477
0.00956258
0.0097761
0.00998492
0.0101886
0.0103877
0.0105822
0.0107716
0.010956
0.0111354
0.0113098
0.0114792
0.0116435
0.011803
0.0119575
0.000141424
0.000939554
0.00173294
0.00233517
0.00283028
0.0032816
0.00372663
0.00416353
0.00459542
0.00502153
0.00543937
0.00584599
0.00623892
0.00661666
0.00697817
0.00732241
0.00764998
0.00796165
0.00825835
0.00854115
0.00881114
0.00906944
0.00931712
0.00955017
0.00977185
0.0099886
0.0102003
0.0104066
0.0106083
0.0108053
0.0109974
0.0111847
0.0113671
0.0115449
0.011718
0.0118864
0.0120502
0.0122094
0.000142727
0.000943174
0.00176645
0.00240142
0.00292378
0.00339513
0.00385317
0.00429879
0.00473658
0.0051668
0.00558771
0.00599696
0.00639261
0.00677352
0.00713778
0.00748501
0.00781586
0.00813091
0.00843098
0.00871707
0.00899025
0.00925164
0.00950232
0.00973899
0.00996445
0.0101845
0.0103991
0.0106081
0.0108126
0.0110124
0.0112073
0.0113975
0.0115832
0.0117644
0.0119413
0.0121137
0.0122819
0.0124459
0.000143935
0.000943886
0.00179514
0.00246172
0.0030105
0.00350139
0.00397207
0.00442618
0.00486954
0.00530345
0.00572693
0.0061382
0.00653617
0.00691927
0.00728538
0.00763506
0.00796855
0.00828636
0.00858929
0.00887827
0.00915435
0.00941861
0.00967213
0.00991223
0.0101413
0.0103646
0.0105822
0.0107942
0.0110014
0.011204
0.0114019
0.0115952
0.0117842
0.011969
0.0121496
0.0123262
0.0124987
0.0126673
0.000144651
0.000941184
0.00181909
0.00251603
0.00309031
0.00360017
0.0040832
0.00454558
0.00499427
0.00543155
0.00585722
0.00627012
0.00666991
0.00705417
0.00742181
0.00777332
0.00810886
0.00842892
0.00873424
0.00902572
0.00930439
0.00957131
0.00982745
0.0100708
0.0103034
0.0105297
0.0107503
0.0109653
0.0111754
0.011381
0.011582
0.0117786
0.011971
0.0121593
0.0123437
0.0125242
0.012701
0.012874
0.000145293
0.000940319
0.00184036
0.00256511
0.00316343
0.00369147
0.00418649
0.00465691
0.00511073
0.00555112
0.00597863
0.00639302
0.00679403
0.00717884
0.0075476
0.00790042
0.00823752
0.00855935
0.00886665
0.0091602
0.00944116
0.00971063
0.00997007
0.0102171
0.0104535
0.0106834
0.0109072
0.0111253
0.0113381
0.0115466
0.0117505
0.0119502
0.0121459
0.0123377
0.0125258
0.0127103
0.0128913
0.0130687
0.000146492
0.000940341
0.00185911
0.00260919
0.00323001
0.00377528
0.0042819
0.00476012
0.00521888
0.00566221
0.00609137
0.00650701
0.00690859
0.00729375
0.00766319
0.00801689
0.00835513
0.00867827
0.00898732
0.00928382
0.0095679
0.00984036
0.0101019
0.0103514
0.0105905
0.010823
0.0110493
0.0112701
0.0114854
0.0116965
0.0119034
0.0121062
0.0123052
0.0125005
0.0126923
0.0128807
0.0130658
0.0132476
0.000147891
0.00093452
0.00187309
0.00264758
0.00328985
0.0038515
0.00436938
0.00485517
0.00531872
0.00576485
0.00619552
0.00661216
0.00701385
0.00739918
0.00776895
0.00812306
0.00846245
0.00878808
0.00909965
0.00939754
0.00968275
0.0099565
0.0102198
0.0104718
0.0107137
0.0109489
0.011178
0.0114015
0.0116197
0.0118335
0.0120434
0.0122493
0.0124515
0.0126502
0.0128456
0.0130378
0.0132268
0.0134127
0.000148686
0.0009247
0.00188053
0.00267965
0.00334277
0.00392017
0.00444895
0.00494208
0.00541025
0.00585905
0.00629111
0.00670851
0.00711003
0.00749525
0.00786532
0.00822137
0.00856242
0.00888831
0.00920009
0.00949872
0.0097854
0.0100609
0.0103263
0.0105806
0.0108252
0.011063
0.0112947
0.0115208
0.0117418
0.0119582
0.012171
0.0123799
0.0125852
0.0127873
0.0129861
0.0131819
0.0133747
0.0135646
0.000148826
0.000914093
0.00188486
0.00270585
0.00338929
0.00398159
0.00452077
0.00502092
0.00549351
0.00594484
0.00637821
0.00679612
0.00719745
0.00758394
0.00795537
0.00831096
0.00865129
0.00897729
0.00928985
0.00958968
0.0098777
0.0101548
0.010422
0.0106786
0.0109256
0.0111657
0.0113998
0.0116285
0.0118522
0.0120712
0.0122866
0.0124984
0.0127068
0.012912
0.0131141
0.0133134
0.0135098
0.0137034
0.000148192
0.000909961
0.00189274
0.00273049
0.00343035
0.00403628
0.00458505
0.0050918
0.00556857
0.0060223
0.00645695
0.00687605
0.00727872
0.00766511
0.00803526
0.00839011
0.00873052
0.00905697
0.00937017
0.00967092
0.00996008
0.0102386
0.0105074
0.0107664
0.0110153
0.0112577
0.011494
0.011725
0.0119512
0.0121728
0.0123907
0.0126053
0.0128165
0.0130247
0.01323
0.0134325
0.0136324
0.0138296
0.000149252
0.000911388
0.00189936
0.00275158
0.00346563
0.00408455
0.00464209
0.00515492
0.0056354
0.00609179
0.00652939
0.00694957
0.0073511
0.00773616
0.00810591
0.00846066
0.00880107
0.00912775
0.00944142
0.00974287
0.0100329
0.0103125
0.0105825
0.0108439
0.0110951
0.0113392
0.0115776
0.0118108
0.0120393
0.0122635
0.0124836
0.0127008
0.0129148
0.0131259
0.0133341
0.0135397
0.0137428
0.0139433
0.000150897
0.000903156
0.0018994
0.00276635
0.00349498
0.00412486
0.00469092
0.00521047
0.0056962
0.00615598
0.00659416
0.00701319
0.00741428
0.00779909
0.00816845
0.00852294
0.00886322
0.00918998
0.00950395
0.00980593
0.0100968
0.0103773
0.0106484
0.010911
0.0111646
0.0114107
0.0116511
0.0118863
0.012117
0.0123435
0.012566
0.0127855
0.013002
0.0132157
0.0134267
0.0136353
0.0138413
0.014045
0.000151251
0.000888361
0.00189378
0.00277604
0.00351969
0.0041615
0.00473577
0.00526113
0.0057502
0.00621102
0.00664959
0.00706875
0.00746971
0.00785418
0.00822311
0.00857724
0.00891729
0.009244
0.00955812
0.00986048
0.0101519
0.0104332
0.0107054
0.0109691
0.0112244
0.0114724
0.0117147
0.0119519
0.0121845
0.0124131
0.0126379
0.0128595
0.0130784
0.0132946
0.0135082
0.0137194
0.0139283
0.0141349
0.000151003
0.00087426
0.00188658
0.00278293
0.00353994
0.00419218
0.00477341
0.00530323
0.00579506
0.00625784
0.00669753
0.0071168
0.0075176
0.00790168
0.00827014
0.00862383
0.00896355
0.0092901
0.00960426
0.00990685
0.0101987
0.0104807
0.0107537
0.0110185
0.0112753
0.0115249
0.0117689
0.0120078
0.0122423
0.0124729
0.0126998
0.0129233
0.0131444
0.0133629
0.0135789
0.0137925
0.014004
0.0142132
0.000150804
0.000867367
0.00188015
0.00278697
0.00355436
0.00421556
0.00480333
0.00533797
0.00583298
0.00629761
0.00673824
0.0071576
0.0075582
0.00794186
0.00830979
0.00866297
0.00900229
0.00932857
0.00964265
0.00994535
0.0102375
0.01052
0.0107937
0.0110594
0.0113174
0.0115685
0.011814
0.0120546
0.0122907
0.012523
0.0127518
0.0129773
0.0132003
0.0134208
0.0136389
0.0138549
0.0140686
0.0142803
0.000150039
0.000866717
0.0018784
0.00278964
0.00356494
0.00423384
0.00482747
0.00536639
0.00586427
0.00633058
0.006772
0.00719142
0.00759178
0.00797496
0.00834232
0.00869495
0.00903378
0.00935971
0.0096736
0.0099763
0.0102687
0.0105515
0.0108257
0.0110921
0.0113511
0.0116035
0.0118504
0.0120924
0.01233
0.0125639
0.0127944
0.0130216
0.0132463
0.0134687
0.0136888
0.0139067
0.0141226
0.0143365
0.000151535
0.000864188
0.00187349
0.00278888
0.0035713
0.00424714
0.00484601
0.00538878
0.00588922
0.00635704
0.00679911
0.00721855
0.00761861
0.00800127
0.00836801
0.00872001
0.0090583
0.00938379
0.00969739
0.00999996
0.0102924
0.0105755
0.0108501
0.011117
0.0113768
0.0116303
0.0118783
0.0121216
0.0123605
0.0125958
0.0128277
0.0130566
0.0132827
0.0135068
0.0137286
0.0139484
0.0141662
0.0143821
0.000151943
0.000850821
0.00186034
0.00278275
0.00357295
0.00425543
0.00485912
0.00540539
0.00590814
0.00637729
0.00681983
0.00723927
0.00763897
0.00802106
0.00838712
0.00873844
0.0090761
0.00940107
0.00971429
0.0100166
0.010309
0.0105921
0.010867
0.0111343
0.0113948
0.0116491
0.0118982
0.0121425
0.0123826
0.012619
0.0128522
0.0130825
0.01331
0.0135354
0.0137588
0.0139802
0.0141996
0.0144172
0.000152195
0.000825718
0.00184091
0.0027721
0.00357018
0.00425888
0.00486704
0.00541648
0.0059213
0.00639162
0.00683451
0.00725387
0.00765314
0.0080346
0.00839994
0.00875051
0.00908747
0.00941184
0.00972457
0.0100266
0.0103187
0.0106018
0.0108768
0.0111443
0.0114053
0.0116604
0.0119102
0.0121553
0.0123964
0.0126339
0.0128681
0.0130995
0.0133283
0.0135549
0.0137796
0.0140023
0.0142232
0.0144424
0.000151415
0.000811339
0.00182272
0.00275965
0.00356383
0.00425787
0.00487007
0.00542236
0.00592902
0.00640033
0.00684345
0.00726264
0.00766142
0.00804218
0.00840672
0.00875648
0.00909267
0.00941635
0.0097285
0.01003
0.0103219
0.0106048
0.0108797
0.0111473
0.0114086
0.0116642
0.0119146
0.0121605
0.0124023
0.0126406
0.0128757
0.0131081
0.0133379
0.0135655
0.0137913
0.0140152
0.0142373
0.0144577
0.00015097
0.000809212
0.00181113
0.00274718
0.00355467
0.00425288
0.00486858
0.00542335
0.0059316
0.00640373
0.00684696
0.00726588
0.00766409
0.00804408
0.00840775
0.00875663
0.00909196
0.00941486
0.00972633
0.0100273
0.0103187
0.0106013
0.010876
0.0111435
0.0114049
0.0116609
0.0119118
0.0121582
0.0124006
0.0126395
0.0128753
0.0131084
0.0133391
0.0135675
0.0137942
0.014019
0.0142421
0.0144636
0.000150745
0.000810796
0.00180287
0.00273443
0.00354299
0.00424425
0.00486291
0.00541977
0.00592935
0.0064021
0.00684533
0.00726388
0.00766142
0.00804056
0.0084033
0.00875121
0.0090856
0.00940763
0.00971832
0.0100186
0.0103094
0.0105916
0.010866
0.0111333
0.0113946
0.0116508
0.011902
0.0121487
0.0123914
0.0126308
0.0128671
0.0131008
0.013332
0.0135611
0.0137885
0.014014
0.0142379
0.0144602
0.000151288
0.000806356
0.00179037
0.00271843
0.00352803
0.00423197
0.00485321
0.00541186
0.00592254
0.00639573
0.00683884
0.00725691
0.00765368
0.00803189
0.0083936
0.00874045
0.00907382
0.00939488
0.00970469
0.0100042
0.0102943
0.0105759
0.0108498
0.0111167
0.0113779
0.0116341
0.0118853
0.0121321
0.0123751
0.0126147
0.0128514
0.0130854
0.0133171
0.0135467
0.0137745
0.0140006
0.0142251
0.014448
0.000151548
0.000785045
0.00176514
0.00269565
0.00350881
0.00421589
0.00483958
0.00539981
0.00591137
0.00638484
0.00682768
0.00724514
0.00764106
0.00801823
0.00837883
0.00872454
0.00905679
0.00937679
0.00968561
0.00998424
0.0102736
0.0105545
0.0108277
0.0110941
0.0113548
0.0116109
0.011862
0.0121088
0.0123519
0.0125916
0.0128284
0.0130626
0.0132945
0.0135244
0.0137524
0.0139789
0.0142037
0.0144271
0.000151615
0.000751744
0.0017331
0.00266954
0.00348666
0.00419651
0.0048222
0.0053837
0.0058959
0.00636943
0.00681188
0.00722861
0.00762355
0.00799962
0.00835903
0.00870353
0.00903458
0.00935343
0.00966118
0.00995882
0.0102473
0.0105274
0.0107999
0.0110656
0.0113256
0.0115814
0.0118323
0.0120789
0.0123219
0.0125615
0.0127982
0.0130325
0.0132644
0.0134944
0.0137226
0.0139492
0.0141743
0.0143979
0.000150623
0.000731722
0.00170644
0.00264183
0.00346087
0.0041727
0.00480005
0.00536265
0.00587536
0.00634891
0.00679093
0.00720688
0.00760083
0.00797577
0.00833396
0.00867722
0.00900704
0.0093247
0.00963132
0.00992792
0.0102154
0.0104947
0.0107665
0.0110315
0.0112911
0.0115464
0.0117969
0.0120432
0.0122858
0.0125252
0.0127617
0.0129957
0.0132275
0.0134574
0.0136855
0.013912
0.0141372
0.0143608
0.000149551
0.000737716
0.00169202
0.00261938
0.00343476
0.00414629
0.00477442
0.00533779
0.00585086
0.00632436
0.00676592
0.00718106
0.00757398
0.00794777
0.00830471
0.00864667
0.00897521
0.00929161
0.00959704
0.00989252
0.010179
0.0104573
0.0107284
0.0109931
0.0112525
0.0115068
0.0117566
0.0120022
0.0122443
0.0124832
0.0127193
0.0129529
0.0131843
0.0134138
0.0136416
0.0138679
0.0140928
0.0143162
0.000149434
0.000743174
0.00168136
0.00259598
0.00340732
0.00411861
0.00474751
0.00531156
0.00582492
0.00629825
0.00673924
0.00715341
0.00754517
0.00791764
0.00827318
0.0086137
0.00894078
0.00925577
0.00955983
0.00985402
0.0101393
0.0104166
0.0106867
0.0109504
0.0112088
0.0114621
0.011711
0.0119558
0.0121972
0.0124353
0.0126708
0.0129038
0.0131346
0.0133636
0.0135909
0.0138167
0.0140411
0.0142642
0.000149277
0.000733267
0.00165942
0.00256714
0.00337679
0.00408829
0.00471783
0.00528239
0.00579589
0.00626896
0.0067093
0.00712244
0.00751298
0.00788407
0.00823812
0.0085771
0.00890264
0.00921612
0.00951871
0.00981151
0.0100955
0.0103715
0.0106404
0.0109031
0.0111603
0.0114125
0.0116603
0.0119042
0.0121446
0.0123819
0.0126165
0.0128487
0.0130788
0.0133071
0.0135336
0.0137587
0.0139825
0.0142051
0.000149614
0.000703521
0.00162519
0.00253326
0.00334344
0.00405544
0.00468549
0.0052504
0.00576396
0.00623667
0.00667628
0.00708838
0.00747763
0.00784728
0.00819977
0.00853714
0.00886106
0.00917292
0.00947394
0.00976522
0.0100477
0.0103224
0.01059
0.0108514
0.0111073
0.0113583
0.0116049
0.0118476
0.0120869
0.0123231
0.0125567
0.0127879
0.0130171
0.0132444
0.0134701
0.0136943
0.0139171
0.014139
0.000148954
0.000670146
0.00158874
0.00249761
0.00330805
0.00402016
0.00465051
0.00521568
0.00572924
0.00620155
0.0066404
0.00705141
0.00743934
0.00780748
0.00815835
0.00849404
0.00881625
0.0091264
0.00942575
0.0097154
0.00999633
0.0102695
0.0105356
0.0107956
0.01105
0.0112996
0.0115449
0.0117863
0.0120243
0.0122593
0.0124916
0.0127217
0.0129497
0.0131759
0.0134005
0.0136236
0.0138454
0.0140663
0.000147764
0.000654355
0.0015599
0.00246363
0.00327134
0.00398262
0.00461303
0.00517839
0.00569188
0.00616375
0.0066018
0.00701171
0.0073983
0.00776487
0.00811407
0.00844801
0.00876843
0.00907679
0.00937437
0.00966227
0.00994149
0.010213
0.0104775
0.0107359
0.0109888
0.0112368
0.0114805
0.0117204
0.011957
0.0121906
0.0124216
0.0126503
0.012877
0.0131019
0.0133252
0.013547
0.0137676
0.0139871
0.000146731
0.000661337
0.00154399
0.00243219
0.0032336
0.00394316
0.00457335
0.00513874
0.00565206
0.00612343
0.00656064
0.00696945
0.00735465
0.00771964
0.00806712
0.00839925
0.00871782
0.00902431
0.00932001
0.00960606
0.00988346
0.0101531
0.0104159
0.0106725
0.0109237
0.0111701
0.0114121
0.0116504
0.0118853
0.0121173
0.0123468
0.0125739
0.0127991
0.0130225
0.0132443
0.0134647
0.0136838
0.0139018
0.000146159
0.000666194
0.00152715
0.00239936
0.00319451
0.00390212
0.00453177
0.00509692
0.00560992
0.00608072
0.00651704
0.00692476
0.00730856
0.00767194
0.00801767
0.00834795
0.0086646
0.00896914
0.00926289
0.00954699
0.00982246
0.0100902
0.0103511
0.0106059
0.0108552
0.0110997
0.0113399
0.0115764
0.0118095
0.0120398
0.0122675
0.0124929
0.0127163
0.012938
0.0131582
0.0133769
0.0135943
0.0138105
0.000146127
0.000649567
0.00149726
0.00236207
0.00315378
0.00385961
0.00448835
0.005053
0.00556554
0.00603572
0.00647116
0.00687775
0.00726015
0.00762192
0.00796588
0.00829427
0.00860896
0.0089115
0.00920321
0.00948527
0.0097587
0.0100244
0.0102833
0.010536
0.0107834
0.0110259
0.0112641
0.0114986
0.0117298
0.0119581
0.0121839
0.0124074
0.012629
0.0128488
0.013067
0.0132839
0.0134994
0.0137137
0.000145878
0.000604251
0.00145487
0.00232125
0.00311148
0.00381542
0.00444295
0.00500694
0.00551896
0.00598849
0.00642306
0.00682853
0.00720955
0.00756971
0.00791189
0.00823839
0.00855107
0.00885155
0.00914116
0.0094211
0.0096924
0.00995599
0.0102127
0.0104633
0.0107085
0.0109489
0.011185
0.0114174
0.0116465
0.0118727
0.0120963
0.0123178
0.0125372
0.0127549
0.0129711
0.0131858
0.0133992
0.0136114
0.00014446
0.000576486
0.00141815
0.00228155
0.00306802
0.00376926
0.00439542
0.00495872
0.00547022
0.00593911
0.00637282
0.00677719
0.00715685
0.00751543
0.00785585
0.00818042
0.00849109
0.00878947
0.00907693
0.00935467
0.00962375
0.00988511
0.0101396
0.0103879
0.0106309
0.010869
0.0111028
0.0113329
0.0115597
0.0117836
0.012005
0.0122241
0.0124413
0.0126567
0.0128705
0.0130829
0.013294
0.0135039
0.000142774
0.000574066
0.00139652
0.00224542
0.00302352
0.00372116
0.00434586
0.00490845
0.00541939
0.00588764
0.00632051
0.00672381
0.00710214
0.00745918
0.00779784
0.00812052
0.00842916
0.00872541
0.00901068
0.00928617
0.00955295
0.00981198
0.0100641
0.0103101
0.0105506
0.0107863
0.0110177
0.0112454
0.0114698
0.0116912
0.0119101
0.0121267
0.0123414
0.0125542
0.0127655
0.0129754
0.0131839
0.0133912
0.000141576
0.000590414
0.00138359
0.00220931
0.00297764
0.00367155
0.00429462
0.0048563
0.00536656
0.00583413
0.00626618
0.00666843
0.00704549
0.00740102
0.00773798
0.00805877
0.00836539
0.00865951
0.00894255
0.00921574
0.00948016
0.00973678
0.00998644
0.0102299
0.0104679
0.0107011
0.0109299
0.011155
0.0113767
0.0115956
0.0118118
0.0120257
0.0122377
0.0124478
0.0126563
0.0128634
0.0130691
0.0132735
0.000141299
0.000585001
0.00135626
0.00216813
0.00293034
0.0036209
0.00424191
0.00480233
0.00531176
0.00577861
0.00620985
0.00661111
0.00698695
0.00734103
0.00767633
0.00799527
0.00829989
0.00859186
0.00887265
0.0091435
0.0094055
0.00965963
0.00990673
0.0101476
0.0103829
0.0106134
0.0108395
0.0110619
0.0112808
0.0114968
0.0117102
0.0119213
0.0121303
0.0123375
0.012543
0.0127471
0.0129497
0.013151
0.000141317
0.000541912
0.00131159
0.00212325
0.00288229
0.00356918
0.00418757
0.00474645
0.00525495
0.00572107
0.00615154
0.00655186
0.00692654
0.00727924
0.00761293
0.00793006
0.0082327
0.00852254
0.00880107
0.00906954
0.00932906
0.0095806
0.00982502
0.0100631
0.0102955
0.0105232