/*--------------------------------*- C++ -*----------------------------------*\
  =========                 |
  \\      /  F ield         | OpenFOAM: The Open Source CFD Toolbox
   \\    /   O peration     | Website:  https://openfoam.org
    \\  /    A nd           | Version:  9
     \\/     M anipulation  |
\*---------------------------------------------------------------------------*/
FoamFile
{
    format      ascii;
    class       volScalarField;
    location    "86400";
    object      O3;
}
// * * * * * * * * * * * * * * * * * * * * * * * * * * * * * * * * * * * * * //

dimensions      [0 0 0 0 0 0 0];

internalField   nonuniform List<scalar> 
15450
(
8.59219e-07
8.58914e-07
8.58228e-07
8.57495e-07
8.56765e-07
8.55607e-07
8.54564e-07
8.54028e-07
8.54666e-07
8.57579e-07
8.60911e-07
8.63091e-07
8.64049e-07
8.64661e-07
8.65224e-07
8.64992e-07
8.63939e-07
8.62326e-07
8.61418e-07
8.61488e-07
8.62759e-07
8.64294e-07
8.67085e-07
8.68433e-07
8.69817e-07
8.70361e-07
8.70038e-07
8.6783e-07
8.6685e-07
8.66432e-07
8.6625e-07
8.65357e-07
8.62905e-07
8.60303e-07
8.59674e-07
8.59625e-07
8.59238e-07
8.52896e-07
8.60884e-07
8.60396e-07
8.59299e-07
8.5833e-07
8.57351e-07
8.56041e-07
8.55269e-07
8.55402e-07
8.56966e-07
8.60038e-07
8.63396e-07
8.65215e-07
8.66746e-07
8.68465e-07
8.69863e-07
8.70317e-07
8.69853e-07
8.68261e-07
8.67546e-07
8.67822e-07
8.69732e-07
8.70325e-07
8.71181e-07
8.73049e-07
8.78259e-07
8.79854e-07
8.80182e-07
8.78919e-07
8.77958e-07
8.80254e-07
8.84082e-07
8.85693e-07
8.83795e-07
8.81884e-07
8.84394e-07
8.94146e-07
8.97609e-07
8.99195e-07
8.62355e-07
8.6156e-07
8.60216e-07
8.59056e-07
8.57885e-07
8.57047e-07
8.57191e-07
8.5893e-07
8.62292e-07
8.65008e-07
8.6631e-07
8.68429e-07
8.70615e-07
8.73287e-07
8.75152e-07
8.77148e-07
8.78299e-07
8.78349e-07
8.78419e-07
8.79141e-07
8.79742e-07
8.80179e-07
8.80899e-07
8.82914e-07
8.8819e-07
8.90008e-07
8.9072e-07
8.90679e-07
8.90764e-07
8.92226e-07
8.95607e-07
8.96905e-07
8.97207e-07
8.9687e-07
8.97612e-07
9.0105e-07
9.02467e-07
9.03013e-07
8.63438e-07
8.62527e-07
8.61144e-07
8.59918e-07
8.59107e-07
8.59477e-07
8.61629e-07
8.64763e-07
8.66917e-07
8.67941e-07
8.69785e-07
8.71809e-07
8.75868e-07
8.7848e-07
8.81762e-07
8.84987e-07
8.86061e-07
8.86666e-07
8.87007e-07
8.87403e-07
8.87947e-07
8.88323e-07
8.88977e-07
8.90416e-07
8.93223e-07
8.95057e-07
8.96248e-07
8.96716e-07
8.97091e-07
8.98047e-07
8.99548e-07
9.00902e-07
9.0147e-07
9.0174e-07
9.02139e-07
9.02887e-07
9.0363e-07
9.03904e-07
8.64356e-07
8.63228e-07
8.62014e-07
8.61389e-07
8.61774e-07
8.63592e-07
8.66118e-07
8.68203e-07
8.6988e-07
8.71227e-07
8.72987e-07
8.76506e-07
8.79767e-07
8.84492e-07
8.88293e-07
8.90273e-07
8.91168e-07
8.91824e-07
8.9228e-07
8.92579e-07
8.92996e-07
8.93331e-07
8.94155e-07
8.94943e-07
8.96705e-07
8.97965e-07
8.98994e-07
8.99769e-07
9.00318e-07
9.00906e-07
9.01677e-07
9.0253e-07
9.02958e-07
9.0322e-07
9.03467e-07
9.0376e-07
9.04044e-07
9.04244e-07
8.65219e-07
8.63963e-07
8.63236e-07
8.63332e-07
8.6457e-07
8.67076e-07
8.69088e-07
8.71548e-07
8.72847e-07
8.74327e-07
8.77461e-07
8.80332e-07
8.84504e-07
8.89766e-07
8.92572e-07
8.94171e-07
8.94954e-07
8.95634e-07
8.96027e-07
8.96509e-07
8.96774e-07
8.97101e-07
8.97497e-07
8.98307e-07
8.99145e-07
9.00443e-07
9.00967e-07
9.01447e-07
9.01949e-07
9.02308e-07
9.02705e-07
9.03276e-07
9.03514e-07
9.03764e-07
9.0392e-07
9.0408e-07
9.04232e-07
9.04357e-07
8.66225e-07
8.65209e-07
8.6492e-07
8.65466e-07
8.67766e-07
8.7075e-07
8.73079e-07
8.74343e-07
8.7578e-07
8.78183e-07
8.80421e-07
8.83349e-07
8.89933e-07
8.93786e-07
8.95549e-07
8.96702e-07
8.97377e-07
8.98135e-07
8.98534e-07
8.98937e-07
8.99186e-07
8.99436e-07
8.99805e-07
9.00379e-07
9.0088e-07
9.01549e-07
9.02029e-07
9.02458e-07
9.02768e-07
9.03039e-07
9.0329e-07
9.03541e-07
9.03743e-07
9.03923e-07
9.04048e-07
9.04159e-07
9.04251e-07
9.04344e-07
8.67197e-07
8.66666e-07
8.669e-07
8.68218e-07
8.70708e-07
8.74275e-07
8.75737e-07
8.77435e-07
8.79899e-07
8.81419e-07
8.84327e-07
8.89403e-07
8.92855e-07
8.95619e-07
8.9734e-07
8.98074e-07
8.98638e-07
8.99249e-07
8.99824e-07
9.00227e-07
9.0066e-07
9.00899e-07
9.01233e-07
9.01586e-07
9.01927e-07
9.02304e-07
9.02665e-07
9.02955e-07
9.03164e-07
9.03333e-07
9.03496e-07
9.0366e-07
9.03804e-07
9.03913e-07
9.04004e-07
9.041e-07
9.04161e-07
9.0425e-07
8.68307e-07
8.68451e-07
8.69063e-07
8.71416e-07
8.74575e-07
8.763e-07
8.78026e-07
8.80937e-07
8.82623e-07
8.84668e-07
8.88588e-07
8.92591e-07
8.95647e-07
8.97096e-07
8.98476e-07
8.99089e-07
8.99655e-07
9.00352e-07
9.00736e-07
9.01187e-07
9.01419e-07
9.01675e-07
9.01969e-07
9.0225e-07
9.02476e-07
9.02735e-07
9.02976e-07
9.03132e-07
9.0331e-07
9.03431e-07
9.03535e-07
9.03641e-07
9.03757e-07
9.03832e-07
9.03898e-07
9.0396e-07
9.04011e-07
9.04079e-07
8.69608e-07
8.70174e-07
8.71473e-07
8.74471e-07
8.76671e-07
8.78584e-07
8.80928e-07
8.83691e-07
8.8567e-07
8.88938e-07
8.92133e-07
8.94635e-07
8.97148e-07
8.98191e-07
8.9926e-07
8.99815e-07
9.00409e-07
9.01084e-07
9.01406e-07
9.0177e-07
9.01968e-07
9.02158e-07
9.02385e-07
9.02609e-07
9.02744e-07
9.02919e-07
9.03073e-07
9.03202e-07
9.03313e-07
9.03388e-07
9.03468e-07
9.03552e-07
9.03618e-07
9.03672e-07
9.03717e-07
9.03772e-07
9.03808e-07
9.03848e-07
8.70844e-07
8.72011e-07
8.73911e-07
8.76135e-07
8.78241e-07
8.815e-07
8.84033e-07
8.85966e-07
8.88546e-07
8.91521e-07
8.94392e-07
8.96321e-07
8.98177e-07
8.99012e-07
8.99854e-07
9.00428e-07
9.0101e-07
9.01542e-07
9.0181e-07
9.02098e-07
9.02252e-07
9.02442e-07
9.02599e-07
9.02726e-07
9.02864e-07
9.02968e-07
9.03067e-07
9.0315e-07
9.03229e-07
9.03285e-07
9.03342e-07
9.03391e-07
9.03431e-07
9.03468e-07
9.03494e-07
9.03529e-07
9.03555e-07
9.03578e-07
8.71895e-07
8.73327e-07
8.75468e-07
8.77632e-07
8.80088e-07
8.84042e-07
8.85939e-07
8.88058e-07
8.91107e-07
8.93785e-07
8.95615e-07
8.97542e-07
8.98894e-07
8.99777e-07
9.00353e-07
9.00858e-07
9.01384e-07
9.01805e-07
9.0205e-07
9.02272e-07
9.02426e-07
9.02551e-07
9.02657e-07
9.02771e-07
9.02847e-07
9.02932e-07
9.03e-07
9.03045e-07
9.03093e-07
9.03127e-07
9.03167e-07
9.03189e-07
9.03209e-07
9.03227e-07
9.03244e-07
9.03255e-07
9.03269e-07
9.03281e-07
8.72694e-07
8.74549e-07
8.76618e-07
8.79247e-07
8.8282e-07
8.85601e-07
8.87793e-07
8.89958e-07
8.92959e-07
8.9519e-07
8.97015e-07
8.98213e-07
8.99478e-07
9.00116e-07
9.00731e-07
9.01198e-07
9.01586e-07
9.01938e-07
9.02186e-07
9.02346e-07
9.02481e-07
9.0258e-07
9.02662e-07
9.02741e-07
9.02784e-07
9.02836e-07
9.02871e-07
9.02902e-07
9.02928e-07
9.02937e-07
9.02949e-07
9.02954e-07
9.02955e-07
9.02957e-07
9.02955e-07
9.02953e-07
9.02952e-07
9.02954e-07
8.7355e-07
8.75565e-07
8.77897e-07
8.80648e-07
8.84438e-07
8.87277e-07
8.89619e-07
8.91866e-07
8.94372e-07
8.9639e-07
8.97939e-07
8.98956e-07
8.9979e-07
9.00429e-07
9.00981e-07
9.01407e-07
9.01756e-07
9.02046e-07
9.02217e-07
9.02369e-07
9.02469e-07
9.0255e-07
9.02609e-07
9.02655e-07
9.02681e-07
9.02704e-07
9.0272e-07
9.02729e-07
9.02725e-07
9.02717e-07
9.02708e-07
9.02699e-07
9.02692e-07
9.02684e-07
9.02676e-07
9.02658e-07
9.02646e-07
9.0263e-07
8.74272e-07
8.76537e-07
8.78882e-07
8.82229e-07
8.85811e-07
8.88479e-07
8.9055e-07
8.93203e-07
8.95601e-07
8.97067e-07
8.98376e-07
8.99353e-07
9.00073e-07
9.00601e-07
9.01165e-07
9.01498e-07
9.01837e-07
9.02052e-07
9.02228e-07
9.02341e-07
9.0242e-07
9.02481e-07
9.0251e-07
9.0253e-07
9.02534e-07
9.02537e-07
9.02538e-07
9.0253e-07
9.0251e-07
9.02503e-07
9.02484e-07
9.02457e-07
9.02431e-07
9.024e-07
9.0237e-07
9.02346e-07
9.0231e-07
9.02284e-07
8.74887e-07
8.77334e-07
8.7989e-07
8.83483e-07
8.8681e-07
8.89555e-07
8.9174e-07
8.9416e-07
8.96217e-07
8.97605e-07
8.98767e-07
8.99685e-07
9.00269e-07
9.00775e-07
9.01281e-07
9.01597e-07
9.0184e-07
9.02048e-07
9.02191e-07
9.02272e-07
9.02335e-07
9.0237e-07
9.02383e-07
9.02386e-07
9.02384e-07
9.02366e-07
9.02336e-07
9.0231e-07
9.02294e-07
9.02254e-07
9.0222e-07
9.02181e-07
9.02137e-07
9.02102e-07
9.02065e-07
9.02025e-07
9.01998e-07
9.01954e-07
8.75484e-07
8.78133e-07
8.81133e-07
8.84701e-07
8.878e-07
8.90483e-07
8.92667e-07
8.95008e-07
8.96766e-07
8.98029e-07
8.9911e-07
8.99864e-07
9.0043e-07
9.00887e-07
9.01338e-07
9.01609e-07
9.0184e-07
9.02011e-07
9.02121e-07
9.02188e-07
9.02224e-07
9.0224e-07
9.02237e-07
9.02224e-07
9.02207e-07
9.02173e-07
9.0215e-07
9.02107e-07
9.02056e-07
9.02013e-07
9.01961e-07
9.01905e-07
9.01846e-07
9.01798e-07
9.01754e-07
9.01702e-07
9.01651e-07
9.01599e-07
8.76019e-07
8.78914e-07
8.82118e-07
8.85586e-07
8.88988e-07
8.91391e-07
8.93399e-07
8.95564e-07
8.97259e-07
8.98406e-07
8.99307e-07
9.00087e-07
9.0055e-07
9.01004e-07
9.01379e-07
9.01598e-07
9.01809e-07
9.01936e-07
9.02034e-07
9.02079e-07
9.02102e-07
9.02097e-07
9.02089e-07
9.02065e-07
9.02023e-07
9.01974e-07
9.01927e-07
9.01877e-07
9.01828e-07
9.01763e-07
9.01696e-07
9.01629e-07
9.01564e-07
9.0149e-07
9.01438e-07
9.01369e-07
9.01313e-07
9.01259e-07
8.76567e-07
8.79705e-07
8.82915e-07
8.86493e-07
8.89684e-07
8.91973e-07
8.93923e-07
8.96055e-07
8.97637e-07
8.98733e-07
8.99585e-07
9.00198e-07
9.00653e-07
9.01033e-07
9.01366e-07
9.01585e-07
9.01755e-07
9.01863e-07
9.01934e-07
9.01967e-07
9.01967e-07
9.01963e-07
9.01939e-07
9.01896e-07
9.01845e-07
9.01779e-07
9.01718e-07
9.01643e-07
9.01586e-07
9.0151e-07
9.01431e-07
9.01361e-07
9.0128e-07
9.01208e-07
9.01124e-07
9.01052e-07
9.00986e-07
9.00914e-07
8.77005e-07
8.80501e-07
8.83867e-07
8.87118e-07
8.90174e-07
8.92345e-07
8.94594e-07
8.96456e-07
8.97864e-07
8.98921e-07
8.99716e-07
9.0032e-07
9.00729e-07
9.01062e-07
9.01366e-07
9.0155e-07
9.01696e-07
9.01779e-07
9.01822e-07
9.01846e-07
9.01843e-07
9.01816e-07
9.0177e-07
9.01712e-07
9.01643e-07
9.01576e-07
9.0149e-07
9.01424e-07
9.01343e-07
9.01262e-07
9.0117e-07
9.01086e-07
9.00997e-07
9.00915e-07
9.00833e-07
9.00745e-07
9.00657e-07
9.00574e-07
8.77535e-07
8.81104e-07
8.84651e-07
8.87992e-07
8.90718e-07
8.92897e-07
8.9493e-07
8.96771e-07
8.98138e-07
8.9913e-07
8.99837e-07
9.00386e-07
9.00758e-07
9.01076e-07
9.01339e-07
9.01507e-07
9.01616e-07
9.01682e-07
9.01717e-07
9.01715e-07
9.01695e-07
9.01659e-07
9.01602e-07
9.01527e-07
9.01464e-07
9.01372e-07
9.01287e-07
9.01201e-07
9.01112e-07
9.01014e-07
9.00913e-07
9.00817e-07
9.00722e-07
9.00628e-07
9.00542e-07
9.00447e-07
9.00335e-07
9.00256e-07
8.77994e-07
8.81753e-07
8.8522e-07
8.88533e-07
8.91219e-07
8.93214e-07
8.95363e-07
8.97081e-07
8.98312e-07
8.99242e-07
8.99916e-07
9.00422e-07
9.00799e-07
9.01062e-07
9.01293e-07
9.01448e-07
9.01536e-07
9.01582e-07
9.01599e-07
9.01589e-07
9.01556e-07
9.01502e-07
9.01436e-07
9.01354e-07
9.01268e-07
9.01186e-07
9.01088e-07
9.0098e-07
9.00877e-07
9.00761e-07
9.00661e-07
9.00565e-07
9.00453e-07
9.00349e-07
9.00244e-07
9.00145e-07
9.00037e-07
8.99933e-07
8.7826e-07
8.82383e-07
8.85806e-07
8.88967e-07
8.91517e-07
8.93566e-07
8.95625e-07
8.97274e-07
8.98428e-07
8.99331e-07
8.99953e-07
9.00449e-07
9.00793e-07
9.01037e-07
9.01246e-07
9.01375e-07
9.01442e-07
9.01473e-07
9.01474e-07
9.01451e-07
9.01404e-07
9.01338e-07
9.01269e-07
9.01183e-07
9.01092e-07
9.00978e-07
9.00879e-07
9.00762e-07
9.00655e-07
9.00543e-07
9.00417e-07
9.00316e-07
9.00188e-07
9.00075e-07
8.99968e-07
8.99859e-07
8.99744e-07
8.99636e-07
8.79068e-07
8.82862e-07
8.86337e-07
8.8935e-07
8.91832e-07
8.93928e-07
8.95861e-07
8.9742e-07
8.98535e-07
8.99387e-07
9.00014e-07
9.00447e-07
9.00766e-07
9.01007e-07
9.0118e-07
9.01287e-07
9.0134e-07
9.01363e-07
9.01355e-07
9.01323e-07
9.01265e-07
9.01198e-07
9.011e-07
9.01005e-07
9.009e-07
9.00788e-07
9.00674e-07
9.00562e-07
9.00436e-07
9.00323e-07
9.00193e-07
9.00057e-07
8.9993e-07
8.99806e-07
8.997e-07
8.99569e-07
8.9945e-07
8.99338e-07
8.79371e-07
8.83565e-07
8.86924e-07
8.89825e-07
8.92106e-07
8.94237e-07
8.9601e-07
8.97523e-07
8.98605e-07
8.99444e-07
9.00006e-07
9.00438e-07
9.00747e-07
9.00958e-07
9.01112e-07
9.01212e-07
9.01253e-07
9.01254e-07
9.01235e-07
9.01185e-07
9.01115e-07
9.0103e-07
9.00938e-07
9.00819e-07
9.00711e-07
9.00584e-07
9.00463e-07
9.00341e-07
9.00213e-07
9.00092e-07
8.99953e-07
8.99826e-07
8.99699e-07
8.99573e-07
8.99431e-07
8.99309e-07
8.9918e-07
8.99058e-07
8.80108e-07
8.84049e-07
8.87352e-07
8.90146e-07
8.92351e-07
8.94438e-07
8.96206e-07
8.97614e-07
8.98661e-07
8.99445e-07
9.00011e-07
9.00411e-07
9.00695e-07
9.00889e-07
9.0103e-07
9.01114e-07
9.01144e-07
9.01138e-07
9.01103e-07
9.01045e-07
9.00959e-07
9.00869e-07
9.00764e-07
9.00655e-07
9.00544e-07
9.00405e-07
9.0027e-07
9.00145e-07
9.00008e-07
8.99873e-07
8.99735e-07
8.99594e-07
8.99451e-07
8.99319e-07
8.99175e-07
8.99044e-07
8.98911e-07
8.98781e-07
8.80356e-07
8.84386e-07
8.87778e-07
8.90488e-07
8.92655e-07
8.94654e-07
8.9635e-07
8.97672e-07
8.98651e-07
8.99432e-07
8.9999e-07
9.00381e-07
9.00652e-07
9.00828e-07
9.00957e-07
9.01018e-07
9.01036e-07
9.01016e-07
9.00971e-07
9.00907e-07
9.00828e-07
9.00714e-07
9.00606e-07
9.00494e-07
9.00361e-07
9.00231e-07
9.00075e-07
8.99942e-07
8.99799e-07
8.99661e-07
8.99506e-07
8.99362e-07
8.99218e-07
8.99069e-07
8.98928e-07
8.98794e-07
8.98663e-07
8.98527e-07
8.80774e-07
8.84874e-07
8.88113e-07
8.90736e-07
8.92795e-07
8.9478e-07
8.96414e-07
8.97709e-07
8.98663e-07
8.99395e-07
8.9994e-07
9.00322e-07
9.00583e-07
9.00751e-07
9.00863e-07
9.0091e-07
9.00923e-07
9.00908e-07
9.00854e-07
9.00769e-07
9.00677e-07
9.00575e-07
9.00445e-07
9.00324e-07
9.00198e-07
9.00049e-07
8.99894e-07
8.99751e-07
8.996e-07
8.99453e-07
8.99293e-07
8.99146e-07
8.98992e-07
8.9884e-07
8.98702e-07
8.98567e-07
8.98434e-07
8.98283e-07
8.81105e-07
8.85319e-07
8.88347e-07
8.90919e-07
8.92959e-07
8.9488e-07
8.9648e-07
8.97729e-07
8.98636e-07
8.9935e-07
8.99888e-07
9.00261e-07
9.00513e-07
9.00666e-07
9.0077e-07
9.00817e-07
9.00818e-07
9.00788e-07
9.00726e-07
9.00641e-07
9.00544e-07
9.0043e-07
9.00307e-07
9.00174e-07
9.00029e-07
8.99873e-07
8.99717e-07
8.9957e-07
8.99416e-07
8.99253e-07
8.99104e-07
8.98942e-07
8.9878e-07
8.98631e-07
8.98483e-07
8.98337e-07
8.98195e-07
8.98043e-07
8.81425e-07
8.8567e-07
8.88671e-07
8.91033e-07
8.93124e-07
8.94981e-07
8.96511e-07
8.97724e-07
8.98615e-07
8.99298e-07
8.9983e-07
9.0018e-07
9.00434e-07
9.00582e-07
9.0067e-07
9.00702e-07
9.007e-07
9.00668e-07
9.00595e-07
9.00512e-07
9.00395e-07
9.00279e-07
9.00155e-07
9.00012e-07
8.99861e-07
8.99706e-07
8.99545e-07
8.99379e-07
8.9922e-07
8.99054e-07
8.98895e-07
8.98743e-07
8.98583e-07
8.98435e-07
8.98282e-07
8.98125e-07
8.97971e-07
8.97825e-07
8.81943e-07
8.85978e-07
8.89029e-07
8.91333e-07
8.93276e-07
8.95061e-07
8.96536e-07
8.97676e-07
8.98578e-07
8.99253e-07
8.9975e-07
9.00107e-07
9.00352e-07
9.0049e-07
9.00565e-07
9.00603e-07
9.00596e-07
9.00551e-07
9.00485e-07
9.0038e-07
9.00271e-07
9.00142e-07
9.00008e-07
8.99856e-07
8.99707e-07
8.99542e-07
8.99378e-07
8.99209e-07
8.99045e-07
8.98878e-07
8.98713e-07
8.98559e-07
8.98405e-07
8.98236e-07
8.98082e-07
8.97927e-07
8.97774e-07
8.97621e-07
8.82209e-07
8.86218e-07
8.89213e-07
8.91471e-07
8.9338e-07
8.95119e-07
8.9652e-07
8.97652e-07
8.98527e-07
8.99183e-07
8.99675e-07
9.00013e-07
9.00252e-07
9.00395e-07
9.00474e-07
9.005e-07
9.0048e-07
9.00423e-07
9.00352e-07
9.00265e-07
9.00144e-07
9.00014e-07
8.99862e-07
8.99708e-07
8.99553e-07
8.99389e-07
8.99216e-07
8.99054e-07
8.98892e-07
8.9872e-07
8.98546e-07
8.98387e-07
8.98217e-07
8.98052e-07
8.97895e-07
8.97735e-07
8.97572e-07
8.97412e-07
8.82469e-07
8.86574e-07
8.89389e-07
8.91553e-07
8.93493e-07
8.95158e-07
8.96507e-07
8.97612e-07
8.98467e-07
8.9911e-07
8.99592e-07
8.99924e-07
9.00157e-07
9.00307e-07
9.00382e-07
9.00397e-07
9.00373e-07
9.00316e-07
9.00234e-07
9.00137e-07
9.00016e-07
8.99872e-07
8.99726e-07
8.9957e-07
8.99415e-07
8.99245e-07
8.9907e-07
8.98893e-07
8.98723e-07
8.98568e-07
8.98392e-07
8.98214e-07
8.98047e-07
8.97879e-07
8.97725e-07
8.9756e-07
8.97394e-07
8.97232e-07
8.8267e-07
8.86807e-07
8.89575e-07
8.91681e-07
8.93592e-07
8.95166e-07
8.96491e-07
8.97572e-07
8.98406e-07
8.99031e-07
8.99503e-07
8.9983e-07
9.00055e-07
9.00199e-07
9.00264e-07
9.00296e-07
9.00272e-07
9.00206e-07
9.00117e-07
9.00011e-07
8.99881e-07
8.99748e-07
8.99598e-07
8.99432e-07
8.9927e-07
8.99104e-07
8.98928e-07
8.98758e-07
8.98584e-07
8.98405e-07
8.98229e-07
8.98057e-07
8.97889e-07
8.97717e-07
8.97547e-07
8.97383e-07
8.97223e-07
8.97053e-07
8.83073e-07
8.87043e-07
8.89787e-07
8.91824e-07
8.93651e-07
8.95183e-07
8.96467e-07
8.9752e-07
8.98316e-07
8.98941e-07
8.99406e-07
8.99725e-07
8.99957e-07
9.00087e-07
9.00158e-07
9.00171e-07
9.00147e-07
9.00093e-07
9.00003e-07
8.99887e-07
8.9977e-07
8.99621e-07
8.99466e-07
8.99308e-07
8.99147e-07
8.98974e-07
8.98796e-07
8.98618e-07
8.98437e-07
8.98272e-07
8.98093e-07
8.97919e-07
8.97744e-07
8.97567e-07
8.97393e-07
8.97222e-07
8.97053e-07
8.96887e-07
8.83363e-07
8.8727e-07
8.89914e-07
8.91896e-07
8.93686e-07
8.9519e-07
8.9644e-07
8.97455e-07
8.98247e-07
8.98858e-07
8.99323e-07
8.99634e-07
8.99861e-07
9e-07
9.0006e-07
9.00074e-07
9.00048e-07
8.99988e-07
8.99897e-07
8.99784e-07
8.99651e-07
8.99511e-07
8.99354e-07
8.99189e-07
8.99026e-07
8.98846e-07
8.98674e-07
8.98495e-07
8.98309e-07
8.98132e-07
8.97959e-07
8.97778e-07
8.97594e-07
8.97414e-07
8.97241e-07
8.97068e-07
8.96897e-07
8.96734e-07
8.83586e-07
8.87462e-07
8.90014e-07
8.92002e-07
8.93735e-07
8.95177e-07
8.96406e-07
8.97399e-07
8.98171e-07
8.98775e-07
8.99222e-07
8.9954e-07
8.99763e-07
8.99891e-07
8.99961e-07
8.9998e-07
8.99945e-07
8.99887e-07
8.99797e-07
8.99689e-07
8.99554e-07
8.99404e-07
8.99248e-07
8.99079e-07
8.98914e-07
8.98736e-07
8.98554e-07
8.98371e-07
8.98183e-07
8.98004e-07
8.97824e-07
8.97646e-07
8.97457e-07
8.97275e-07
8.97099e-07
8.96924e-07
8.96755e-07
8.96586e-07
8.83767e-07
8.87622e-07
8.90117e-07
8.92067e-07
8.93777e-07
8.95166e-07
8.96361e-07
8.97326e-07
8.98091e-07
8.98683e-07
8.99141e-07
8.99455e-07
8.99674e-07
8.99803e-07
8.99863e-07
8.99874e-07
8.99847e-07
8.99792e-07
8.99696e-07
8.99582e-07
8.99448e-07
8.993e-07
8.99141e-07
8.98971e-07
8.988e-07
8.98616e-07
8.98432e-07
8.98247e-07
8.98056e-07
8.97878e-07
8.97698e-07
8.9752e-07
8.97336e-07
8.9715e-07
8.96972e-07
8.96795e-07
8.96625e-07
8.96457e-07
8.83955e-07
8.87769e-07
8.90276e-07
8.9213e-07
8.93792e-07
8.95154e-07
8.96321e-07
8.97246e-07
8.98007e-07
8.98599e-07
8.99034e-07
8.99333e-07
8.99558e-07
8.99691e-07
8.99767e-07
8.99776e-07
8.99745e-07
8.99676e-07
8.99582e-07
8.99473e-07
8.99338e-07
8.9919e-07
8.99031e-07
8.9886e-07
8.98689e-07
8.98506e-07
8.98323e-07
8.98131e-07
8.97949e-07
8.97761e-07
8.97574e-07
8.97396e-07
8.97209e-07
8.97024e-07
8.9685e-07
8.96671e-07
8.96502e-07
8.96338e-07
8.84136e-07
8.87928e-07
8.90365e-07
8.92191e-07
8.93808e-07
8.95145e-07
8.96255e-07
8.97183e-07
8.97925e-07
8.98504e-07
8.98934e-07
8.99242e-07
8.99466e-07
8.99589e-07
8.99667e-07
8.99676e-07
8.99651e-07
8.99587e-07
8.99493e-07
8.99376e-07
8.99244e-07
8.99091e-07
8.98934e-07
8.98764e-07
8.98588e-07
8.98407e-07
8.98221e-07
8.98033e-07
8.97847e-07
8.97657e-07
8.97471e-07
8.97288e-07
8.97102e-07
8.96917e-07
8.96736e-07
8.96561e-07
8.96385e-07
8.96218e-07
8.84404e-07
8.88069e-07
8.90428e-07
8.92266e-07
8.93821e-07
8.95125e-07
8.9622e-07
8.97115e-07
8.97843e-07
8.98405e-07
8.98832e-07
8.99145e-07
8.9936e-07
8.99493e-07
8.99565e-07
8.99584e-07
8.9955e-07
8.99484e-07
8.99389e-07
8.99279e-07
8.99146e-07
8.98987e-07
8.98829e-07
8.98668e-07
8.98486e-07
8.98305e-07
8.98123e-07
8.97931e-07
8.97752e-07
8.97559e-07
8.9737e-07
8.97183e-07
8.97002e-07
8.96817e-07
8.96635e-07
8.96459e-07
8.96287e-07
8.96118e-07
8.84543e-07
8.88162e-07
8.90512e-07
8.92314e-07
8.93827e-07
8.95096e-07
8.96173e-07
8.97052e-07
8.97769e-07
8.9831e-07
8.98749e-07
8.99057e-07
8.99263e-07
8.99393e-07
8.9946e-07
8.99475e-07
8.99459e-07
8.99391e-07
8.99299e-07
8.99184e-07
8.99051e-07
8.98905e-07
8.98741e-07
8.98572e-07
8.98396e-07
8.98216e-07
8.98034e-07
8.97844e-07
8.97659e-07
8.97468e-07
8.97279e-07
8.97092e-07
8.96911e-07
8.96727e-07
8.96545e-07
8.96361e-07
8.96188e-07
8.96022e-07
8.84706e-07
8.88294e-07
8.90589e-07
8.92368e-07
8.93826e-07
8.95067e-07
8.961e-07
8.96973e-07
8.97667e-07
8.9822e-07
8.98624e-07
8.98942e-07
8.99159e-07
8.99291e-07
8.99352e-07
8.9938e-07
8.99355e-07
8.99302e-07
8.99211e-07
8.9909e-07
8.98956e-07
8.98814e-07
8.98656e-07
8.98482e-07
8.98307e-07
8.98131e-07
8.97941e-07
8.97753e-07
8.97567e-07
8.9738e-07
8.97194e-07
8.97006e-07
8.96818e-07
8.96637e-07
8.96458e-07
8.96279e-07
8.96103e-07
8.95938e-07
8.84847e-07
8.88379e-07
8.90665e-07
8.92398e-07
8.93829e-07
8.95038e-07
8.96051e-07
8.96885e-07
8.9756e-07
8.98101e-07
8.98521e-07
8.9882e-07
8.99037e-07
8.99181e-07
8.99256e-07
8.9928e-07
8.99258e-07
8.99194e-07
8.9911e-07
8.98995e-07
8.98865e-07
8.98722e-07
8.9856e-07
8.98391e-07
8.98216e-07
8.98038e-07
8.97859e-07
8.97671e-07
8.9748e-07
8.97293e-07
8.97106e-07
8.96921e-07
8.96734e-07
8.96553e-07
8.96375e-07
8.96199e-07
8.96029e-07
8.95861e-07
8.8497e-07
8.88472e-07
8.90722e-07
8.92435e-07
8.93827e-07
8.95013e-07
8.96007e-07
8.96831e-07
8.97493e-07
8.98022e-07
8.98427e-07
8.98729e-07
8.98952e-07
8.99094e-07
8.99166e-07
8.99183e-07
8.99159e-07
8.99103e-07
8.99014e-07
8.98909e-07
8.98782e-07
8.98637e-07
8.98484e-07
8.98316e-07
8.98144e-07
8.97965e-07
8.9778e-07
8.97596e-07
8.97408e-07
8.97225e-07
8.97037e-07
8.96847e-07
8.96664e-07
8.96485e-07
8.96307e-07
8.96131e-07
8.95961e-07
8.95794e-07
8.85183e-07
8.88582e-07
8.90802e-07
8.92457e-07
8.93822e-07
8.9497e-07
8.9593e-07
8.96744e-07
8.97396e-07
8.97915e-07
8.98332e-07
8.9863e-07
8.98841e-07
8.98985e-07
8.99064e-07
8.99082e-07
8.99068e-07
8.99016e-07
8.98932e-07
8.98828e-07
8.98699e-07
8.98552e-07
8.98401e-07
8.98233e-07
8.98061e-07
8.97886e-07
8.97708e-07
8.97526e-07
8.97338e-07
8.97152e-07
8.96966e-07
8.96784e-07
8.96602e-07
8.96423e-07
8.96247e-07
8.96071e-07
8.95899e-07
8.95732e-07
8.85321e-07
8.88733e-07
8.90856e-07
8.92484e-07
8.9381e-07
8.94933e-07
8.95872e-07
8.96653e-07
8.973e-07
8.97823e-07
8.98225e-07
8.9853e-07
8.98738e-07
8.98882e-07
8.98963e-07
8.98994e-07
8.98982e-07
8.98932e-07
8.98851e-07
8.98744e-07
8.98625e-07
8.98483e-07
8.98327e-07
8.98165e-07
8.97995e-07
8.9782e-07
8.9764e-07
8.9746e-07
8.97276e-07
8.97093e-07
8.96909e-07
8.96726e-07
8.96545e-07
8.96367e-07
8.96191e-07
8.96017e-07
8.95846e-07
8.95678e-07
8.8551e-07
8.88795e-07
8.90896e-07
8.92495e-07
8.93797e-07
8.94899e-07
8.95816e-07
8.96595e-07
8.97223e-07
8.97734e-07
8.98132e-07
8.98442e-07
8.98648e-07
8.98797e-07
8.98878e-07
8.98905e-07
8.98888e-07
8.98852e-07
8.98773e-07
8.98665e-07
8.98541e-07
8.98404e-07
8.98255e-07
8.98096e-07
8.97932e-07
8.97759e-07
8.97583e-07
8.97402e-07
8.97221e-07
8.9704e-07
8.96857e-07
8.96675e-07
8.96497e-07
8.96319e-07
8.96143e-07
8.95972e-07
8.95801e-07
8.95635e-07
8.85631e-07
8.88842e-07
8.90955e-07
8.9251e-07
8.9378e-07
8.94845e-07
8.95754e-07
8.9651e-07
8.97147e-07
8.97645e-07
8.98037e-07
8.9833e-07
8.98554e-07
8.98686e-07
8.98773e-07
8.98812e-07
8.98803e-07
8.98756e-07
8.98683e-07
8.98589e-07
8.98473e-07
8.98338e-07
8.98193e-07
8.98036e-07
8.97872e-07
8.97703e-07
8.97527e-07
8.9735e-07
8.97172e-07
8.9699e-07
8.9681e-07
8.96631e-07
8.96452e-07
8.96276e-07
8.96101e-07
8.9593e-07
8.95762e-07
8.95597e-07
8.85727e-07
8.88897e-07
8.90984e-07
8.92519e-07
8.93765e-07
8.9481e-07
8.95693e-07
8.96426e-07
8.97035e-07
8.97535e-07
8.97928e-07
8.98223e-07
8.9844e-07
8.98593e-07
8.98683e-07
8.98723e-07
8.98724e-07
8.98682e-07
8.98609e-07
8.98516e-07
8.98402e-07
8.98271e-07
8.98127e-07
8.97973e-07
8.97811e-07
8.97643e-07
8.97473e-07
8.97297e-07
8.97121e-07
8.96943e-07
8.96765e-07
8.96589e-07
8.96411e-07
8.96237e-07
8.96066e-07
8.95895e-07
8.9573e-07
8.95566e-07
8.85831e-07
8.88973e-07
8.91038e-07
8.92527e-07
8.93747e-07
8.94767e-07
8.95635e-07
8.96357e-07
8.96956e-07
8.97448e-07
8.97846e-07
8.98133e-07
8.98348e-07
8.985e-07
8.98593e-07
8.98635e-07
8.98637e-07
8.98596e-07
8.98534e-07
8.98448e-07
8.98335e-07
8.98208e-07
8.98067e-07
8.97919e-07
8.97757e-07
8.97593e-07
8.97423e-07
8.97252e-07
8.97079e-07
8.96904e-07
8.96729e-07
8.96554e-07
8.96379e-07
8.96207e-07
8.96037e-07
8.9587e-07
8.95705e-07
8.95543e-07
8.85946e-07
8.89047e-07
8.91066e-07
8.92532e-07
8.93727e-07
8.94731e-07
8.95581e-07
8.96294e-07
8.96876e-07
8.97359e-07
8.97745e-07
8.98046e-07
8.98255e-07
8.98407e-07
8.98508e-07
8.98548e-07
8.98543e-07
8.98516e-07
8.98457e-07
8.98371e-07
8.98267e-07
8.98148e-07
8.98009e-07
8.97859e-07
8.97707e-07
8.97547e-07
8.97381e-07
8.97212e-07
8.9704e-07
8.96869e-07
8.96696e-07
8.96524e-07
8.96353e-07
8.96183e-07
8.96014e-07
8.95849e-07
8.95687e-07
8.95527e-07
8.86169e-07
8.89148e-07
8.9111e-07
8.92531e-07
8.93703e-07
8.94683e-07
8.95502e-07
8.96209e-07
8.96791e-07
8.97269e-07
8.97643e-07
8.97929e-07
8.98158e-07
8.98307e-07
8.98398e-07
8.9845e-07
8.98461e-07
8.98439e-07
8.98382e-07
8.98302e-07
8.98197e-07
8.98082e-07
8.97955e-07
8.97811e-07
8.97661e-07
8.97505e-07
8.97342e-07
8.97176e-07
8.97008e-07
8.96837e-07
8.96668e-07
8.965e-07
8.96331e-07
8.96164e-07
8.95998e-07
8.95835e-07
8.95673e-07
8.95516e-07
8.86276e-07
8.89193e-07
8.91127e-07
8.92526e-07
8.93668e-07
8.9463e-07
8.9544e-07
8.96125e-07
8.96708e-07
8.97171e-07
8.97553e-07
8.97834e-07
8.98055e-07
8.98211e-07
8.98309e-07
8.98363e-07
8.98377e-07
8.98354e-07
8.98307e-07
8.98236e-07
8.98139e-07
8.98025e-07
8.97896e-07
8.97761e-07
8.97612e-07
8.9746e-07
8.97305e-07
8.97144e-07
8.96978e-07
8.96813e-07
8.96646e-07
8.96481e-07
8.96314e-07
8.96149e-07
8.95985e-07
8.95825e-07
8.95665e-07
8.95509e-07
8.86368e-07
8.89226e-07
8.91145e-07
8.92515e-07
8.93636e-07
8.94576e-07
8.9538e-07
8.96051e-07
8.9661e-07
8.97065e-07
8.97439e-07
8.97733e-07
8.97953e-07
8.98115e-07
8.98224e-07
8.98278e-07
8.98297e-07
8.98278e-07
8.98233e-07
8.98164e-07
8.98074e-07
8.97968e-07
8.97846e-07
8.97714e-07
8.97572e-07
8.97422e-07
8.97271e-07
8.97115e-07
8.96952e-07
8.96789e-07
8.96627e-07
8.96463e-07
8.963e-07
8.96139e-07
8.95977e-07
8.9582e-07
8.95662e-07
8.95509e-07
8.86439e-07
8.89277e-07
8.91157e-07
8.92504e-07
8.93601e-07
8.94525e-07
8.95291e-07
8.95948e-07
8.96502e-07
8.96971e-07
8.97328e-07
8.97628e-07
8.97848e-07
8.98016e-07
8.98118e-07
8.98186e-07
8.98207e-07
8.98198e-07
8.98159e-07
8.98094e-07
8.98012e-07
8.97911e-07
8.97795e-07
8.97668e-07
8.97532e-07
8.97388e-07
8.97239e-07
8.97088e-07
8.96929e-07
8.9677e-07
8.9661e-07
8.96452e-07
8.96291e-07
8.96133e-07
8.95973e-07
8.9582e-07
8.95664e-07
8.95513e-07
8.86595e-07
8.89346e-07
8.91177e-07
8.92492e-07
8.93567e-07
8.94476e-07
8.95225e-07
8.95862e-07
8.96409e-07
8.96859e-07
8.9723e-07
8.97526e-07
8.97748e-07
8.97912e-07
8.98027e-07
8.98102e-07
8.98126e-07
8.9812e-07
8.98086e-07
8.98029e-07
8.97952e-07
8.97857e-07
8.97746e-07
8.97623e-07
8.97494e-07
8.97354e-07
8.97209e-07
8.97062e-07
8.96908e-07
8.96753e-07
8.96598e-07
8.96443e-07
8.96286e-07
8.9613e-07
8.95974e-07
8.95822e-07
8.95672e-07
8.95521e-07
8.8668e-07
8.89412e-07
8.91185e-07
8.92473e-07
8.93525e-07
8.94403e-07
8.95149e-07
8.95782e-07
8.96317e-07
8.96766e-07
8.9713e-07
8.97425e-07
8.97651e-07
8.97821e-07
8.97934e-07
8.98003e-07
8.98043e-07
8.98042e-07
8.98015e-07
8.97963e-07
8.97893e-07
8.97802e-07
8.97697e-07
8.97583e-07
8.97455e-07
8.97319e-07
8.97183e-07
8.97036e-07
8.96889e-07
8.96739e-07
8.96588e-07
8.96437e-07
8.96284e-07
8.96131e-07
8.95979e-07
8.95829e-07
8.95682e-07
8.95534e-07
8.86798e-07
8.89454e-07
8.9118e-07
8.92451e-07
8.93483e-07
8.94345e-07
8.95085e-07
8.95695e-07
8.96225e-07
8.96667e-07
8.97039e-07
8.97327e-07
8.97557e-07
8.9772e-07
8.97843e-07
8.97921e-07
8.97953e-07
8.97963e-07
8.97944e-07
8.97898e-07
8.97833e-07
8.97749e-07
8.97648e-07
8.9754e-07
8.97418e-07
8.97291e-07
8.97158e-07
8.97015e-07
8.96875e-07
8.96726e-07
8.96581e-07
8.96433e-07
8.96283e-07
8.96133e-07
8.95985e-07
8.95841e-07
8.95698e-07
8.95553e-07
8.8688e-07
8.89465e-07
8.91169e-07
8.92423e-07
8.93442e-07
8.94278e-07
8.94992e-07
8.9561e-07
8.96134e-07
8.9656e-07
8.96919e-07
8.97214e-07
8.97432e-07
8.97622e-07
8.97745e-07
8.97819e-07
8.97867e-07
8.97885e-07
8.97867e-07
8.97833e-07
8.97772e-07
8.97697e-07
8.97602e-07
8.975e-07
8.97382e-07
8.97258e-07
8.97133e-07
8.96996e-07
8.96858e-07
8.96715e-07
8.96575e-07
8.9643e-07