/*--------------------------------*- C++ -*----------------------------------*\
  =========                 |
  \\      /  F ield         | OpenFOAM: The Open Source CFD Toolbox
   \\    /   O peration     | Website:  https://openfoam.org
    \\  /    A nd           | Version:  9
     \\/     M anipulation  |
\*---------------------------------------------------------------------------*/
FoamFile
{
    format      ascii;
    class       surfaceScalarField;
    location    "86400";
    object      phi;
}
// * * * * * * * * * * * * * * * * * * * * * * * * * * * * * * * * * * * * * //

dimensions      [1 0 -1 0 0 0 0];

internalField   nonuniform List<scalar> 
30647
(
9.81547e-05
-9.81548e-05
0.00018407
-8.5915e-05
0.000235891
-5.18213e-05
0.000255686
-1.97954e-05
0.000249682
6.00357e-06
0.00022705
2.26323e-05
0.000195649
3.14003e-05
0.000156126
3.95231e-05
0.000101626
5.44996e-05
2.91251e-05
7.25012e-05
-5.45372e-05
8.36622e-05
-0.000141578
8.70407e-05
-0.000271164
0.000129585
-0.000469121
0.000197958
-0.000628588
0.000159467
-0.00068269
5.4102e-05
-0.000729816
4.71258e-05
-0.000869174
0.000139358
-0.00109292
0.000223745
-0.00130279
0.000209866
-0.00141424
0.000111452
-0.00164595
0.000231709
-0.00205617
0.000410219
-0.00243025
0.000374083
-0.00246781
3.75629e-05
-0.00230888
-0.000158933
-0.00221326
-9.56229e-05
-0.00250551
0.000292257
-0.00296219
0.000456678
-0.00313208
0.000169885
-0.00294981
-0.000182264
-0.00279881
-0.000151006
-0.00303535
0.000236539
-0.00357698
0.000541629
-0.0038824
0.000305427
-0.00351834
-0.000364073
-0.00306676
-0.000451576
-0.000213015
-0.00285374
9.72693e-05
-0.000195424
0.00016732
-0.000155966
0.000204449
-8.89504e-05
0.000214142
-2.94889e-05
0.000204585
1.55608e-05
0.000182255
4.49615e-05
0.000149138
6.45174e-05
0.000101696
8.69654e-05
3.0172e-05
0.000126023
-7.37187e-05
0.000176391
-0.000217889
0.000227833
-0.000420206
0.000289357
-0.000674771
0.00038415
-0.000932767
0.000455954
-0.00114781
0.000374507
-0.001323
0.000229292
-0.00145854
0.000182665
-0.00155002
0.000230841
-0.0016059
0.000279629
-0.00167995
0.000283912
-0.00185465
0.000286154
-0.00206909
0.000446146
-0.00221713
0.000558261
-0.00237869
0.000535643
-0.00256085
0.000219724
-0.00269032
-2.94642e-05
-0.00281341
2.74663e-05
-0.00289398
0.00037283
-0.00294976
0.000512456
-0.00314174
0.000361867
-0.00329468
-2.9327e-05
-0.00334173
-0.000103953
-0.00325972
0.000154521
-0.00320432
0.000486229
-0.00332206
0.000423169
-0.00359973
-8.64015e-05
-0.00375126
-0.000300048
-0.000236278
-0.00372799
8.05664e-05
-0.000275991
0.000130502
-0.000205901
0.000148237
-0.000106685
0.000143222
-2.44743e-05
0.000122363
3.64199e-05
8.95785e-05
7.77458e-05
3.99785e-05
0.000114117
-3.54795e-05
0.000162423
-0.000149025
0.000239568
-0.000320357
0.000347723
-0.000558154
0.000465629
-0.000832039
0.000563242
-0.00107095
0.000623061
-0.0012443
0.000629307
-0.00141823
0.000548434
-0.00160381
0.000414873
-0.00174859
0.000327442
-0.00186175
0.000344003
-0.00197265
0.000390529
-0.00205793
0.00036919
-0.00214169
0.000369911
-0.00221207
0.000516528
-0.00226489
0.000611085
-0.00233406
0.000604803
-0.00252675
0.000412417
-0.00270157
0.000145363
-0.00282293
0.000148819
-0.00282768
0.000377583
-0.00281533
0.000500104
-0.00292157
0.00046811
-0.00313544
0.000184544
-0.00327719
3.77943e-05
-0.00326591
0.000143238
-0.00312784
0.000348163
-0.00306551
0.000360834
-0.00329303
0.000141125
-0.00352491
-6.81738e-05
-8.57895e-05
-0.0036754
6.0401e-05
-0.000336392
8.17934e-05
-0.000227294
7.4689e-05
-9.95812e-05
4.88741e-05
1.34052e-06
6.83236e-06
7.84615e-05
-5.66911e-05
0.000141269
-0.000145657
0.000203083
-0.000266092
0.000282858
-0.000425317
0.000398792
-0.000638887
0.000561293
-0.000898819
0.000725561
-0.00114137
0.000805788
-0.00130591
0.000787605
-0.00142192
0.000745314
-0.00156135
0.000687866
-0.00173174
0.000585269
-0.00188718
0.000482878
-0.00200457
0.000461397
-0.00210907
0.000495024
-0.00221192
0.000472039
-0.00228766
0.000445654
-0.00230523
0.000534097
-0.00230013
0.000605987
-0.0023093
0.000613975
-0.00244324
0.000546348
-0.00264026
0.000342391
-0.00276793
0.000276487
-0.00277304
0.000382687
-0.00274735
0.000474416
-0.00275525
0.000476014
-0.00292991
0.000359199
-0.00309243
0.000200314
-0.00315215
0.00020296
-0.0030868
0.000282809
-0.00303018
0.000304219
-0.00313507
0.000246011
-0.00331062
0.000107381
4.81543e-05
-0.00344457
3.62837e-05
-0.000372676
1.97197e-05
-0.00021073
-1.66501e-05
-6.32115e-05
-7.15821e-05
5.62724e-05
-0.000149089
0.000155969
-0.000252715
0.000244894
-0.000382174
0.000332542
-0.000533697
0.00043438
-0.000707338
0.000572433
-0.000909072
0.000763027
-0.00111755
0.000934038
-0.00129217
0.000980414
-0.00141859
0.000914021
-0.00151738
0.000844103
-0.00162495
0.000795433
-0.00176228
0.000722602
-0.00191024
0.000630837
-0.00203058
0.000581742
-0.00212234
0.000586782
-0.00222364
0.00057334
-0.00231393
0.000535939
-0.00234025
0.000560417
-0.0023362
0.000601941
-0.00233256
0.000610337
-0.00237761
0.000591396
-0.00253058
0.000495356
-0.00266559
0.000411504
-0.00270821
0.000425307
-0.00269945
0.000465651
-0.00269473
0.000471296
-0.00276657
0.000431037
-0.00290508
0.000338824
-0.00299452
0.000292399
-0.00301056
0.000298848
-0.00300761
0.000301273
-0.00303924
0.000277638
-0.00314964
0.000217785
0.000166038
-0.00326753
-5.60044e-06
-0.000367075
-5.61686e-05
-0.000160162
-0.00012343
4.05001e-06
-0.00021148
0.000144322
-0.000325729
0.000270218
-0.000463912
0.000383077
-0.000619279
0.000487909
-0.000784671
0.000599772
-0.000952574
0.000740337
-0.00110963
0.000920085
-0.00123437
0.00105878
-0.00134246
0.0010885
-0.00145178
0.00102335
-0.00154942
0.000941744
-0.00164164
0.000887653
-0.00174953
0.000830493
-0.00187521
0.000756509
-0.00199151
0.000698044
-0.00208095
0.000676228
-0.00217058
0.000662967
-0.002266
0.000631354
-0.00232039
0.000614808
-0.0023372
0.000618746
-0.00234482
0.000617958
-0.00236385
0.000610425
-0.00244289
0.000574405
-0.00255071
0.000519322
-0.00261793
0.000492521
-0.00264219
0.000489913
-0.00265453
0.000483636
-0.00268679
0.000463294
-0.00276726
0.000419298
-0.00285032
0.000375454
-0.00290228
0.000350809
-0.00293595
0.000334945
-0.00297214
0.000313834
-0.00303652
0.00028216
0.000249547
-0.00312003
-5.75139e-05
-0.000309562
-0.000137651
-8.00244e-05
-0.000232699
9.90979e-05
-0.000350798
0.000262421
-0.000491878
0.000411297
-0.000648538
0.000539738
-0.00081273
0.0006521
-0.000975654
0.000762696
-0.00112287
0.000887557
-0.00123229
0.0010295
-0.00130153
0.00112802
-0.00136616
0.00115312
-0.00145161
0.0011088
-0.00154332
0.00103346
-0.00162937
0.000973697
-0.00171956
0.000920687
-0.00182274
0.000859685
-0.00192704
0.000802347
-0.00201547
0.000764658
-0.00209283
0.000740323
-0.00217436
0.000712887
-0.00224547
0.000685917
-0.00229289
0.000666164
-0.00232493
0.000649997
-0.00234989
0.000635385
-0.00239134
0.00061586
-0.0024579
0.000585884
-0.00252168
0.000556296
-0.00256677
0.000535001
-0.00259991
0.000516781
-0.00263306
0.000496442
-0.00268257
0.000468806
-0.00274426
0.000437142
-0.00280132
0.000407876
-0.00284962
0.00038324
-0.00289536
0.000359573
-0.00294775
0.000334556
0.000310229
-0.00300843
-9.82457e-05
-0.000211316
-0.000206458
2.81875e-05
-0.000328097
0.000220738
-0.000468378
0.000402701
-0.000623042
0.000565961
-0.000783797
0.000700493
-0.000943124
0.000811428
-0.00109108
0.000910646
-0.0012135
0.00100998
-0.0012939
0.00110991
-0.00134325
0.00117737
-0.00138719
0.00119706
-0.00144858
0.00117019
-0.00152577
0.00111065
-0.00160441
0.00105234
-0.00168379
0.00100007
-0.00177016
0.000946054
-0.00186049
0.000892677
-0.00194436
0.000848522
-0.00201852
0.000814482
-0.00208934
0.000783709
-0.00215677
0.000753349
-0.00221574
0.000725133
-0.00226538
0.000699638
-0.00230681
0.000676813
-0.0023466
0.000655655
-0.00239355
0.000632834
-0.00244515
0.000607888
-0.00249316
0.000583017
-0.00253553
0.000559148
-0.00257486
0.00053577
-0.00261728
0.000511232
-0.00266541
0.000485266
-0.00271617
0.00045864
-0.00276556
0.000432625
-0.00281372
0.000407734
-0.00286301
0.000383844
0.00036156
-0.00291434
-0.000126305
-8.50114e-05
-0.000259374
0.000161257
-0.000401358
0.000362721
-0.000554016
0.000555359
-0.000711352
0.000723297
-0.00086675
0.000855891
-0.00101384
0.00095852
-0.00114427
0.00104107
-0.00124852
0.00111423
-0.0013181
0.00117948
-0.00136339
0.00122266
-0.00140137
0.00123504
-0.00144788
0.00121669
-0.0015095
0.00117227
-0.00157782
0.00112066
-0.00164822
0.00107047
-0.00172252
0.00102036
-0.00180044
0.000970597
-0.00187694
0.000925018
-0.00194802
0.000885566
-0.00201462
0.000850302
-0.00207828
0.000817016
-0.00213833
0.000785181
-0.00219368
0.000754987
-0.00224394
0.000727068
-0.00228983
0.000701543
-0.00233441
0.000677423
-0.00237986
0.000653331
-0.00242533
0.000628492
-0.00246934
0.000603156
-0.00251162
0.000578048
-0.0025536
0.000553214
-0.00259683
0.000528492
-0.00264184
0.000503648
-0.00268783
0.000478618
-0.00273407
0.000453977
-0.0027806
0.000430373
0.000408299
-0.00282734
-0.000147969
6.29576e-05
-0.000297686
0.000310973
-0.000450792
0.000515827
-0.000606686
0.000711253
-0.000759788
0.000876399
-0.000905275
0.00100138
-0.00103836
0.0010916
-0.00115408
0.00115679
-0.00124753
0.00120768
-0.00131512
0.00124708
-0.00136277
0.00127031
-0.00140184
0.00127412
-0.00144312
0.00125797
-0.0014941
0.00122325
-0.00155252
0.00117908
-0.00161463
0.00113258
-0.00167982
0.00108554
-0.00174786
0.00103864
-0.0018165
0.000993661
-0.00188302
0.000952086
-0.00194653
0.000913805
-0.00200742
0.000877914
-0.00206595
0.000843702
-0.00212191
0.000810947
-0.00217481
0.000779977
-0.00222434
0.000751069
-0.00227093
0.000724017
-0.00231575
0.000698143
-0.00235976
0.000672502
-0.00240319
0.000646591
-0.00244584
0.000620696
-0.00248782
0.000595193
-0.00252955
0.000570221
-0.00257156
0.000545661
-0.00261421
0.000521266
-0.00265739
0.000497155
-0.0027008
0.000473788
0.000451595
-0.0027441
-0.000161033
0.00022399
-0.0003206
0.00047054
-0.00047798
0.000673207
-0.000631226
0.000864499
-0.000776504
0.00102168
-0.000910529
0.0011354
-0.0010307
0.00121178
-0.00113511
0.00126119
-0.00122166
0.00129423
-0.00128946
0.00131488
-0.00134206
0.0013229
-0.00138586
0.00131792
-0.00142791
0.00130001
-0.00147429
0.00126963
-0.00152603
0.00123082
-0.00158154
0.0011881
-0.00163985
0.00114385
-0.00170046
0.00109925
-0.00176226
0.00105546
-0.00182368
0.0010135
-0.00188363
0.000973762
-0.0019418
0.000936082
-0.0019982
0.000900102
-0.00205286
0.000865607
-0.00210555
0.000832665
-0.0021559
0.000801419
-0.00220374
0.000771852
-0.00224929
0.000743701
-0.00229322
0.000716433
-0.00233617
0.000689535
-0.00237838
0.000662902
-0.00241989
0.000636711
-0.0024608
0.000611123
-0.00250129
0.000586153
-0.0025417
0.00056168
-0.00258223
0.000537688
-0.0026228
0.000514353
0.000491939
-0.00266315
-0.000167792
0.000391781
-0.00033061
0.000633358
-0.000487177
0.000829775
-0.000634673
0.00101199
-0.000770539
0.00115754
-0.000893342
0.0012582
-0.00100265
0.00132108
-0.00109845
0.001357
-0.00118024
0.00137602
-0.00124842
0.00138307
-0.00130529
0.00137977
-0.00135439
0.00136702
-0.00139991
0.00134553
-0.00144605
0.00131578
-0.00149483
0.00127959
-0.00154624
0.00123951
-0.00159983
0.00119743
-0.00165518
0.00115461
-0.00171169
0.00111197
-0.00176848
0.00107029
-0.00182474
0.00103002
-0.00187997
0.000991315
-0.00193397
0.000954104
-0.00198668
0.000918314
-0.00203795
0.000883938
-0.00208755
0.000851016
-0.00213525
0.00081955
-0.00218098
0.000789435
-0.00222497
0.000760422
-0.00226763
0.000732198
-0.00230931
0.000704578
-0.00235016
0.00067756
-0.00239025
0.000651212
-0.00242966
0.000625563
-0.00246856
0.000600586
-0.00250714
0.000576264
-0.00254543
0.000552642
0.000529843
-0.00258333
-0.000168766
0.000560548
-0.000330569
0.000795161
-0.000483176
0.000982382
-0.00062337
0.00115219
-0.000749694
0.00128387
-0.00086257
0.00137108
-0.000963079
0.00142159
-0.00105224
0.00144616
-0.00113046
0.00145423
-0.0011986
0.00145121
-0.00125826
0.00143943
-0.00131152
0.00142028
-0.0013608
0.00139481
-0.00140873
0.00136371
-0.00145715
0.00132801
-0.00150673
0.0012891
-0.00155758
0.00124828
-0.00160953
0.00120656
-0.00166229
0.00116473
-0.00171538
0.00112338
-0.00176832
0.00108296
-0.00182068
0.00104368
-0.00187221
0.00100563
-0.00192274
0.000968851
-0.00197216
0.000933353
-0.00202029
0.000899145
-0.00206696
0.000866222
-0.00211206
0.000834539
-0.00215562
0.000803985
-0.00219783
0.000774399
-0.00223889
0.000745642
-0.00227898
0.000717655
-0.0023182
0.000690429
-0.00235661
0.000663969
-0.0023943
0.000638273
-0.00243136
0.000613333
-0.00246787
0.000589152
0.00056578
-0.00250381
-0.000165486
0.000726033
-0.000323333
0.000953008
-0.000470059
0.00112911
-0.000602418
0.00128455
-0.00072
0.00140145
-0.000824565
0.00147565
-0.000918026
0.00151505
-0.00100195
0.00153009
-0.00107727
0.00152955
-0.00114491
0.00151884
-0.00120601
0.00150054
-0.00126194
0.00147621
-0.00131413
0.001447
-0.00136417
0.00141376
-0.0014134
0.00137723
-0.0014626
0.00133829
-0.00151212
0.0012978
-0.00156206
0.0012565
-0.00161233
0.001215
-0.00166272
0.00117378
-0.00171296
0.0011332
-0.00176278
0.00109349
-0.00181196
0.00105481
-0.00186035
0.00101723
-0.0019078
0.000980803
-0.00195419
0.000945537
-0.0019994
0.000911434
-0.00204334
0.000878478
-0.00208598
0.000846624
-0.00212737
0.000815792
-0.00216762
0.000785895
-0.00220684
0.000756875
-0.00224511
0.000728697
-0.00228249
0.000701346
-0.00231903
0.000674818
-0.0023548
0.0006491
-0.00238984
0.000624187
0.000600093
-0.00242415
-0.000159512
0.000885545
-0.000311315
0.00110481
-0.000451014
0.00126881
-0.000575645
0.00140918
-0.000685641
0.00151144
-0.000783388
0.00157339
-0.000871221
0.00160288
-0.000950968
0.00160983
-0.00102381
0.0016024
-0.00109057
0.0015856
-0.00115213
0.0015621
-0.00120943
0.00153351
-0.00126342
0.00150099
-0.00131505
0.00146539
-0.00136523
0.00142741
-0.00141461
0.00138767
-0.0014636
0.00134679
-0.00151239
0.00130529
-0.00156105
0.00126365
-0.00160951
0.00122224
-0.00165767
0.00118135
-0.00170537
0.0011412
-0.00175247
0.00110192
-0.00179885
0.00106361
-0.00184439
0.00102635
-0.00188901
0.00099015
-0.0019326
0.000955029
-0.00197512
0.000920991
-0.00201652
0.000888025
-0.00205681
0.000856083
-0.00209603
0.000825113
-0.00213422
0.000795069
-0.00217144
0.000765915
-0.00220772
0.000737633
-0.00224312
0.000710213
-0.00227766
0.000683638
-0.00231137
0.000657896
0.000632986
-0.00234426
-0.00015192
0.00103747
-0.000296445
0.00124933
-0.000428569
0.00140093
-0.000545823
0.00152643
-0.000649267
0.00161489
-0.000741443
0.00166557
-0.000824787
0.00168623
-0.000901174
0.00168622
-0.000971807
0.00167303
-0.00103744
0.00165123
-0.00109877
0.00162343
-0.0011565
0.00159124
-0.00121128
0.00155577
-0.00126377
0.00151788
-0.00131454
0.00147818
-0.00136409
0.00143723
-0.00141278
0.00139548
-0.00146083
0.00135334
-0.00150836
0.00131118
-0.00155541
0.00126928
-0.00160194
0.00122789
-0.0016479
0.00118716
-0.00169321
0.00114723
-0.00173779
0.00110819
-0.00178156
0.00107012
-0.00182446
0.00103305
-0.00186643
0.000996998
-0.00190744
0.000961999
-0.00194746
0.000928045
-0.00198647
0.000895099
-0.00202449
0.000863128
-0.00206151
0.000832096
-0.00209758
0.000801978
-0.0021327
0.000772759
-0.00216692
0.000744425
-0.00220023
0.000716957
-0.00223268
0.00069034
0.000664566
-0.00226426
-0.000143574
0.00118104
-0.000280218
0.00138598
-0.000404685
0.0015254
-0.00051505
0.0016368
-0.000612726
0.00171256
-0.000700233
0.00175308
-0.000779902
0.0017659
-0.000853489
0.00175981
-0.000922098
0.00174164
-0.000986427
0.00171556
-0.00104706
0.00168406
-0.00110454
0.00164872
-0.00115937
0.00161061
-0.00121201
0.00157052
-0.00126288
0.00152905
-0.00131233
0.00148667
-0.00136064
0.00144379
-0.00140803
0.00140073
-0.00145463
0.00135778
-0.0015005
0.00131516
-0.00154568
0.00127307
-0.00159016
0.00123164
-0.00163391
0.00119098
-0.00167688
0.00115116
-0.00171903
0.00111226
-0.00176032
0.00107434
-0.00180074
0.00103742
-0.00184027
0.00100153
-0.00187887
0.00096665
-0.00191654
0.000932763
-0.00195325
0.000899842
-0.00198902
0.000867864
-0.00202385
0.000836809
-0.00205775
0.000806665
-0.00209075
0.000777417
-0.00212284
0.000749048
-0.00215404
0.000721542
0.000694886
-0.00218436
-0.000134854
0.00131589
-0.000263539
0.00151466
-0.000380679
0.00164254
-0.00048473
0.00174085
-0.000577258
0.00180509
-0.000660703
0.00183652
-0.000737203
0.0018424
-0.000808306
0.00183091
-0.000874984
0.00180832
-0.000937872
0.00177845
-0.000997475
0.00174367
-0.00105424
0.00170548
-0.00110857
0.00166493
-0.00116081
0.00162276
-0.00121129
0.00157953
-0.00126028
0.00153566
-0.00130801
0.00149151
-0.00135464
0.00144736
-0.0014003
0.00140344
-0.00144509
0.00135994
-0.00148904
0.00131702
-0.00153218
0.00127478
-0.00157451
0.00123331
-0.00161601
0.00119266
-0.00165668
0.00115293
-0.00169649
0.00111415
-0.00173546
0.00107638
-0.00177356
0.00103962
-0.00181076
0.00100385
-0.00184706
0.00096906
-0.00188244
0.000935224
-0.00191691
0.00090233
-0.00195046
0.000870364
-0.00198311
0.000839315
-0.00201486
0.000809166
-0.00204572
0.000779903
-0.00207569
0.000751511
0.000723975
-0.00210478
-0.00012643
0.00144232
-0.000247409
0.00163564
-0.000357581
0.00175271
-0.000455775
0.00183904
-0.0005436
0.00189292
-0.000623357
0.00191628
-0.000696954
0.00191599
-0.000765719
0.00189968
-0.000830477
0.00187307
-0.000891792
0.00183976
-0.000950106
0.00180198
-0.0010058
0.00176118
-0.00105922
0.00171835
-0.00111066
0.0016742
-0.00116037
0.00162924
-0.00120858
0.00158387
-0.00125547
0.0015384
-0.00130119
0.00149308
-0.00134584
0.0014481
-0.00138952
0.00140362
-0.00143227
0.00135977
-0.00147414
0.00131664
-0.00151512
0.00127429
-0.00155526
0.0012328
-0.00159454
0.00119221
-0.00163298
0.00115259
-0.00167056
0.00111397
-0.00170728
0.00107634
-0.00174312
0.00103969
-0.00177806
0.00100401
-0.00181211
0.000969276
-0.00184527
0.00093549
-0.00187755
0.000902636
-0.00190893
0.000870699
-0.00193943
0.000839668
-0.00196905
0.000809527
-0.0019978
0.000780261
0.000751855
-0.00202568
-0.000118579
0.0015609
-0.000232397
0.00174946
-0.000336127
0.00185644
-0.000428918
0.00193183
-0.000512363
0.00197636
-0.0005886
0.00199251
-0.000659342
0.00198673
-0.000725723
0.00196606
-0.000788446
0.0019358
-0.000848004
0.00189932
-0.00090479
0.00185877
-0.00095914
0.00181553
-0.00101135
0.00177056
-0.00106168
0.00172453
-0.00111034
0.0016779
-0.00115752
0.00163105
-0.00120337
0.00158426
-0.00124802
0.00153773
-0.00129157
0.00149165
-0.00133409
0.00144614
-0.00137563
0.00140131
-0.00141624
0.00135725
-0.00145593
0.00131399
-0.00149476
0.00127162
-0.00153272
0.00123017
-0.00156982
0.0011897
-0.00160607
0.00115021
-0.00164144
0.00111171
-0.00167594
0.00107419
-0.00170956
0.00103763
-0.00174231
0.00100202
-0.00177418
0.000967361
-0.00180518
0.000933635
-0.00183531
0.00090083
-0.00186458
0.000868934
-0.00189298
0.000837932
-0.00192053
0.00080781
0.000778552
-0.00194723
-0.000111524
0.00167243
-0.000218785
0.00185672
-0.000316593
0.00195425
-0.000404384
0.00201962
-0.000483687
0.00205567
-0.00055647
0.0020653
-0.000624296
0.00205456
-0.000688163
0.00202992
-0.000748682
0.00199632
-0.000806289
0.00195693
-0.000861335
0.00191381
-0.00091412
0.00186831
-0.000964903
0.00182134
-0.0010139
0.00177352
-0.0010613
0.0017253
-0.00110726
0.00167701
-0.00115191
0.00162891
-0.00119537
0.00158119
-0.00123771
0.00153399
-0.00127901
0.00148744
-0.00131931
0.00144162
-0.00135866
0.00139659
-0.00139708
0.00135242
-0.00143462
0.00130916
-0.00147129
0.00126684
-0.00150709
0.0012255
-0.00154203
0.00118515
-0.00157609
0.00114578
-0.00160928
0.00110738
-0.00164161
0.00106995
-0.00167308
0.00103349
-0.00170368
0.000997967
-0.00173343
0.000963386
-0.00176233
0.00092973
-0.00179039
0.000896987
-0.0018176
0.000865144
-0.00184397
0.000834184
0.000804091
-0.00186951
-0.000105514
0.00177794
-0.000206591
0.0019578
-0.00029892
0.00204658
-0.000382038
0.00210274
-0.000457352
0.00213098
-0.000526692
0.00213464
-0.000591508
0.00211938
-0.000652717
0.00209113
-0.000710873
0.00205447
-0.000766368
0.00201242
-0.000819514
0.00196696
-0.000870573
0.00191937
-0.000919761
0.00187053
-0.000967267
0.00182103
-0.00101325
0.00177129
-0.00105786
0.00172162
-0.0011012
0.00167225
-0.00114337
0.00162335
-0.00118443
0.00157506
-0.00122446
0.00152746
-0.00126348
0.00148064
-0.00130156
0.00143466
-0.00133871
0.00138957
-0.00137496
0.00134541
-0.00141035
0.00130222
-0.00144486
0.00126001
-0.0014785
0.00121879
-0.00151128
0.00117855
-0.0015432
0.0011393
-0.00157426
0.00110102
-0.00160447
0.0010637
-0.00163384
0.00102733
-0.00166236
0.000991914
-0.00169006
0.000957425
-0.00171693
0.000923854
-0.00174297
0.000891188
-0.0017682
0.00085941
0.000828504
-0.00179261
-9.99206e-05
0.00187786
-0.000195356
0.00205323
-0.000282715
0.00213394
-0.000361433
0.00218146
-0.000432871
0.00220242
-0.000498777
0.00220054
-0.000560522
0.00218112
-0.000618977
0.00214959
-0.000674665
0.00211016
-0.000727941
0.0020657
-0.000779076
0.00201809
-0.00082829
0.00196859
-0.000875773
0.00191801
-0.000921687
0.00186694
-0.000966172
0.00181577
-0.00100934
0.00176479
-0.00105129
0.0017142
-0.0010921
0.00166416
-0.00113183
0.00161479
-0.00117054
0.00156617
-0.00120826
0.00151837
-0.00124504
0.00147144
-0.0012809
0.00142543
-0.00131587
0.00138039
-0.00134997
0.00133632
-0.0013832
0.00129324
-0.00141557
0.00125116
-0.00144708
0.00121007
-0.00147774
0.00116996
-0.00150756
0.00113083
-0.00153654
0.00109268
-0.0015647
0.00105549
-0.00159203
0.00101925
-0.00161855
0.000983942
-0.00164425
0.000949562
-0.00166916
0.000916093
-0.00169327
0.000883517
0.00085182
-0.00171658
-9.37856e-05
0.00197165
-0.00018475
0.0021442
-0.00026758
0.00221677
-0.000342044
0.00225592
-0.000409675
0.00227005
-0.000472172
0.00226304
-0.000530843
0.00223979
-0.00058652
0.00220526
-0.000639696
0.00216334
-0.000690697
0.0021167
-0.000739759
0.00206716
-0.000787073
0.0020159
-0.000832798
0.00196374
-0.000877068
0.00191121
-0.000919997
0.0018587
-0.000961677
0.00180647
-0.00100219
0.00175471
-0.0010416
0.00170357
-0.00107996
0.00165315
-0.00111732
0.00160353
-0.00115371
0.00155476
-0.00118918
0.00150691
-0.00122374
0.00146
-0.00125742
0.00141407
-0.00129023
0.00136913
-0.00132219
0.00132519
-0.00135329
0.00128226
-0.00138355
0.00124032
-0.00141297
0.00119938
-0.00144156
0.00115943
-0.00146934
0.00112046
-0.00149631
0.00108245
-0.00152247
0.00104541
-0.00154783
0.00100931
-0.00157241
0.000974139
-0.0015962
0.000939887
-0.00161922
0.000906536
0.00087407
-0.00164147
-8.8537e-05
0.00206018
-0.00017527
0.00223093
-0.000253247
0.00229474
-0.000323388
0.00232606
-0.000387253
0.00233391
-0.000446394
0.00232218
-0.000502035
0.00229543
-0.000554963
0.00225819
-0.000605645
0.00221402
-0.000654379
0.00216543
-0.00070137
0.00211415
-0.000746779
0.00206131
-0.000790733
0.00200769
-0.000833339
0.00195382
-0.000874686
0.00190005
-0.000914849
0.00184663
-0.000953895
0.00179376
-0.000991879
0.00174155
-0.00102885
0.00169012
-0.00106484
0.00163952
-0.00109989
0.00158982
-0.00113403
0.00154105
-0.00116729
0.00149325
-0.00119967
0.00144645
-0.00123119
0.00140066
-0.00126187
0.00135587
-0.00129172
0.0013121
-0.00132073
0.00126934
-0.00134893
0.00122758
-0.00137632
0.00118682
-0.00140291
0.00114705
-0.00142871
0.00110825
-0.00145372
0.00107042
-0.00147796
0.00103354
-0.00150143
0.000997608
-0.00152413
0.000962596
-0.00154609
0.000928492
0.00089528
-0.0015673
-8.68318e-05
0.00214701
-0.000166806
0.00231091
-0.000239155
0.00236709
-0.000304974
0.00239188
-0.000365178
0.00239412
-0.000421073
0.00237808
-0.000473785
0.00234815
-0.000524052
0.00230846
-0.000572314
0.00226228
-0.000618837
0.00221196
-0.000663797
0.00215911
-0.000707324
0.00210484
-0.000749516
0.00204988
-0.000790455
0.00199476
-0.00083021
0.0019398
-0.000868844
0.00188527
-0.00090641
0.00183132
-0.000942953
0.0017781
-0.000978513
0.00172568
-0.00101313
0.00167413
-0.00104682
0.00162351
-0.00107963
0.00157385
-0.00111156
0.00152518
-0.00114264
0.00147753
-0.00117288
0.0014309
-0.00120229
0.00138529
-0.00123089
0.0013407
-0.00125867
0.00129713
-0.00128566
0.00125457
-0.00131186
0.00121302
-0.00133728
0.00117246
-0.00136192
0.0011329
-0.00138581
0.00109431
-0.00140894
0.00105668
-0.00143132
0.00101999
-0.00145297
0.000984244
-0.00147389
0.000949411
0.000915478
-0.00149409
-8.46656e-05
0.00223168
-0.000156683
0.00238292
-0.00022437
0.00243478
-0.000286419
0.00245393
-0.000343213
0.00245091
-0.000396031
0.0024309
-0.000445956
0.00239807
-0.000493685
0.00235619
-0.000539626
0.00230822
-0.000584015
0.00225634
-0.000626999
0.00220209
-0.000668677
0.00214651
-0.000709123
0.00209033
-0.000748401
0.00203403
-0.000786563
0.00197796
-0.00082366
0.00192236
-0.000859734
0.0018674
-0.000894824
0.00181319
-0.000928965
0.00175982
-0.000962187
0.00170735
-0.000994517
0.00165584
-0.00102598
0.00160531
-0.00105659
0.0015558
-0.00108637
0.00150731
-0.00111533
0.00145985
-0.00114347
0.00141343
-0.00117083
0.00136805
-0.00119739
0.00132369
-0.00122318
0.00128036
-0.0012482
0.00123804
-0.00127246
0.00119673
-0.00129597
0.00115641
-0.00131875
0.00111708
-0.00134079
0.00107872
-0.00136211
0.00104132
-0.00138272
0.00100485
-0.00140263
0.000969316
0.000934687
-0.00142184
-7.36288e-05
0.00230531
-0.000143443
0.00245274
-0.000209051
0.00250039
-0.000267869
0.00251275
-0.000321425
0.00250447
-0.000371302
0.00248077
-0.000418573
0.00244534
-0.000463885
0.0024015
-0.000507604
0.00235194
-0.000549934
0.00229867
-0.00059099
0.00224315
-0.000630849
0.00218637
-0.000669564
0.00212905
-0.000707183
0.00207165
-0.000743748
0.00201453
-0.0007793
0.00195791
-0.000813872
0.00190197
-0.000847499
0.00184681
-0.00088021
0.00179253
-0.000912031
0.00173918
-0.000942988
0.0016868
-0.000973101
0.00163543
-0.00100239
0.00158508
-0.00103086
0.00153578
-0.00105854
0.00148753
-0.00108543
0.00144032
-0.00111155
0.00139416
-0.0011369
0.00134904
-0.00116149
0.00130495
-0.00118535
0.00126189
-0.00120847
0.00121985
-0.00123086
0.00117881
-0.00125254
0.00113876
-0.00127352
0.00109969
-0.0012938
0.00106159
-0.00131339
0.00102444
-0.0013323
0.000988227
0.000952929
-0.00135054
-6.04639e-05
0.00236577
-0.000132508
0.00252478
-0.000195072
0.00256295
-0.000249923
0.0025676
-0.000300068
0.00255461
-0.000347043
0.00252775
-0.000391757
0.00249005
-0.000434751
0.00244449
-0.000476329
0.00239352
-0.000516654
0.002339
-0.000555817
0.00228231
-0.000593873
0.00222443
-0.000630862
0.00216604
-0.000666819
0.00210761
-0.000701778
0.00204949
-0.000735772
0.00199191
-0.000768831
0.00193503
-0.000800981
0.00187896
-0.000832251
0.0018238
-0.000862663
0.00176959
-0.00089224
0.00171637
-0.000921
0.00166419
-0.000948959
0.00161304
-0.000976131
0.00156295
-0.00100253
0.00151393
-0.00102816
0.00146596
-0.00105305
0.00141905
-0.0010772
0.00137319
-0.00110061
0.00132837
-0.00112331
0.00128459
-0.0011453
0.00124184
-0.00116659
0.0012001
-0.0011872
0.00115936
-0.00120712
0.00111962
-0.00122637
0.00108084
-0.00124496
0.00104303
-0.0012629
0.00100616
0.000970222
-0.00128019
-6.28883e-05
0.00242866
-0.000128263
0.00259015
-0.000182818
0.00261751
-0.000232582
0.00261736
-0.000279215
0.00260124
-0.00032338
0.00257191
-0.000365643
0.00253232
-0.000406402
0.00248525
-0.000445895
0.00243301
-0.000484249
0.00237735
-0.000521534
0.00231959
-0.000557788
0.00226068
-0.000593042
0.00220129
-0.000627324
0.00214189
-0.000660663
0.00208283
-0.000693083
0.00202433
-0.000724612
0.00196655
-0.000755273
0.00190962
-0.00078509
0.00185361
-0.000814084
0.00179858
-0.000842272
0.00174456
-0.000869673
0.00169159
-0.000896301
0.00163967
-0.000922169
0.00158882
-0.000947289
0.00153905
-0.000971675
0.00149035
-0.000995337
0.00144271
-0.00101829
0.00139614
-0.00104053
0.00135062
-0.00106209
0.00130614
-0.00108296
0.00126271
-0.00110316
0.0012203
-0.0011227
0.0011789
-0.00114158
0.0011385
-0.00115982
0.00109908
-0.00117742
0.00106064
-0.0011944
0.00102314
0.000986585
-0.00121077
-7.41003e-05
0.00250276
-0.000123197
0.00263925
-0.000169401
0.00266371
-0.000215051
0.00266301
-0.000258755
0.00264495
-0.000300395
0.00261355
-0.000340347
0.00257227
-0.000378944
0.00252385
-0.000416386
0.00247045
-0.00045278
0.00241375
-0.00048818
0.00235499
-0.000522619
0.00229512
-0.00055612
0.00223479
-0.000588707
0.00217448
-0.000620404
0.00211452
-0.000651232
0.00205516
-0.000681214
0.00199654
-0.000710371
0.00193878
-0.000738722
0.00188197
-0.000766285
0.00182614
-0.000793076
0.00177135
-0.00081911
0.00171762
-0.000844403
0.00166496
-0.000868966
0.00161339
-0.000892812
0.00156289
-0.000915951
0.00151348
-0.000938394
0.00146515
-0.000960153
0.00141789
-0.000981237
0.0013717
-0.00100166
0.00132656
-0.00102142
0.00128247
-0.00104054
0.00123942
-0.00105903
0.00119738
-0.00107688
0.00115636
-0.00109413
0.00111633
-0.00111076
0.00107727
-0.0011268
0.00103918
0.00100203
-0.00114224
-6.72185e-05
0.00256998
-0.000108301
0.00268033
-0.000153092
0.0027085
-0.00019727
0.00270719
-0.000238877
0.00268655
-0.000278255
0.00265293
-0.00031599
0.00261
-0.000352457
0.00256032
-0.000387855
0.00250585
-0.000422277
0.00244817
-0.000455774
0.00238849
-0.000488372
0.00232772
-0.000520094
0.00226651
-0.000550962
0.00220535
-0.000580994
0.00214456
-0.000610209
0.00208437
-0.000638625
0.00202495
-0.00066626
0.00196641
-0.000693129
0.00190883
-0.000719248
0.00185226
-0.000744633
0.00179674
-0.000769298
0.00174229
-0.000793254
0.00168892
-0.000816512
0.00163664
-0.000839084
0.00158547
-0.00086098
0.00153538
-0.000882209
0.00148638
-0.000902784
0.00143847
-0.000922712
0.00139163
-0.000942005
0.00134586
-0.000960672
0.00130114
-0.000978722
0.00125747
-0.000996164
0.00121483
-0.00101301
0.0011732
-0.00102927
0.00113258
-0.00104494
0.00109295
-0.00106005
0.00105429
0.00101658
-0.0010746
-4.00159e-05
0.00260999
-8.82706e-05
0.00272859
-0.00013716
0.00275739
-0.000180718
0.00275075
-0.000220161
0.002726
-0.00025719
0.00268996
-0.00029267
0.00264548
-0.000326987
0.00259463
-0.000360315
0.00253918
-0.000392738
0.00248059
-0.0004243
0.00242005
-0.000455029
0.00235845
-0.000484945
0.00229643
-0.000514067
0.00223447
-0.00054241
0.0021729
-0.000569988
0.00211195
-0.000596818
0.00205178
-0.000622913
0.00199251
-0.000648288
0.00193421
-0.000672957
0.00187693
-0.000696931
0.00182071
-0.000720221
0.00176558
-0.000742837
0.00171153
-0.00076479
0.0016586
-0.000786088
0.00160676
-0.000806743
0.00155603
-0.000826762
0.0015064
-0.000846157