/*--------------------------------*- C++ -*----------------------------------*\
  =========                 |
  \\      /  F ield         | OpenFOAM: The Open Source CFD Toolbox
   \\    /   O peration     | Website:  https://openfoam.org
    \\  /    A nd           | Version:  9
     \\/     M anipulation  |
\*---------------------------------------------------------------------------*/
FoamFile
{
    format      ascii;
    class       volScalarField;
    location    "86400";
    object      Qdot;
}
// * * * * * * * * * * * * * * * * * * * * * * * * * * * * * * * * * * * * * //

dimensions      [1 -1 -3 0 0 0 0];

internalField   nonuniform List<scalar> 
15450
(
0.0288091
0.0288173
0.0288172
0.0288108
0.0288007
0.0287973
0.0288636
0.029103
0.029698
0.0310281
0.032455
0.0337824
0.0347212
0.0351499
0.0352527
0.0354915
0.0360959
0.036979
0.0378226
0.0380283
0.0378076
0.0371033
0.0359641
0.0351908
0.0342842
0.0338741
0.0338391
0.0345138
0.0356916
0.0361451
0.0362023
0.0363314
0.0372804
0.0394919
0.0402276
0.0403996
0.0402735
0.0416299
0.0288554
0.0288732
0.0288894
0.0288896
0.0288889
0.0289297
0.0290795
0.0294933
0.0302951
0.0316326
0.0330111
0.0338303
0.0339351
0.0335237
0.0330034
0.0328064
0.0331087
0.0337704
0.0344984
0.0346311
0.0338987
0.0335049
0.0333103
0.032658
0.0304801
0.0288444
0.0280345
0.0284632
0.0295943
0.0291975
0.0272486
0.0251896
0.0255106
0.0269761
0.0278274
0.0235696
0.019832
0.017992
0.0288872
0.0289281
0.0289791
0.0290067
0.0290542
0.029186
0.0295361
0.030277
0.0313592
0.0323943
0.033001
0.0329921
0.0324129
0.0311416
0.0304617
0.0291308
0.0283998
0.0283694
0.0284035
0.028254
0.0279124
0.0277028
0.027553
0.0269226
0.02485
0.0228194
0.0221985
0.0220744
0.0222182
0.0218888
0.0202455
0.0188227
0.0183832
0.0184339
0.01857
0.0177157
0.0157837
0.0154386
0.0288996
0.0289959
0.029087
0.0291675
0.0292987
0.0296128
0.0301696
0.0309678
0.0316688
0.0320624
0.0320141
0.0313146
0.0299103
0.0284048
0.026664
0.024806
0.0241816
0.0238287
0.0236295
0.0235259
0.0234098
0.0232661
0.0231047
0.022632
0.0210723
0.0199968
0.0189811
0.018645
0.0185434
0.0181937
0.0174531
0.016257
0.0158105
0.0156176
0.0155021
0.015218
0.0147883
0.0145118
0.0288857
0.0290407
0.0291935
0.0293485
0.0295511
0.0299197
0.03041
0.0309202
0.0311537
0.0311708
0.0307502
0.0293207
0.0279567
0.025051
0.0228398
0.0218778
0.0212538
0.0208526
0.0206575
0.0205477
0.0203486
0.0201938
0.0199364
0.0195673
0.0188018
0.0178503
0.0171149
0.0166438
0.0163751
0.0160418
0.0157084
0.0149945
0.0146649
0.0144935
0.0143656
0.0142333
0.0140786
0.0139302
0.0288396
0.0290707
0.0292477
0.0293958
0.0295938
0.0298919
0.0301084
0.030138
0.0301568
0.029831
0.0286266
0.0274177
0.025385
0.0218864
0.0203188
0.0195899
0.0189335
0.0185501
0.0182816
0.0181358
0.0179583
0.0178045
0.0176876
0.0173132
0.0169959
0.0161426
0.0156658
0.0154176
0.0149995
0.0148357
0.0146165
0.0142851
0.0140339
0.0138715
0.0137619
0.0136736
0.0135854
0.0135072
0.0287671
0.0290158
0.0291695
0.0292625
0.0293147
0.0293017
0.0291408
0.029081
0.0287615
0.0277709
0.0269509
0.0254273
0.0221472
0.0198492
0.0185404
0.0178884
0.0174557
0.0170297
0.0167229
0.0165362
0.0163321
0.0162784
0.0160895
0.0157833
0.0155054
0.0151717
0.0147404
0.0145624
0.0142753
0.014078
0.0139241
0.0137626
0.0135675
0.0134743
0.0133699
0.0132949
0.0132293
0.0131728
0.0286293
0.0288417
0.0289384
0.0289366
0.0287653
0.0283518
0.0281636
0.0278622
0.0268326
0.0261591
0.0247741
0.022287
0.0199221
0.0186176
0.0175349
0.0169451
0.0166271
0.0162399
0.0158606
0.0156141
0.0154139
0.0151831
0.0150399
0.0147874
0.0145997
0.0143615
0.0141019
0.0139202
0.0137133
0.0136086
0.0134937
0.0133829
0.0132459
0.0131696
0.013087
0.0130286
0.012973
0.0129139
0.0284332
0.0285188
0.0285215
0.0282785
0.0277853
0.027564
0.0271245
0.0260694
0.0253693
0.0243463
0.0223515
0.0203643
0.0185013
0.0175224
0.0166371
0.0162672
0.0159038
0.0154584
0.0151356
0.0148862
0.0146917
0.0145338
0.0143041
0.0141728
0.0139907
0.01381
0.013647
0.0135236
0.0133862
0.0132662
0.013176
0.0131022
0.0130004
0.0129377
0.0128755
0.0128159
0.012764
0.0127058
0.0281566
0.0281346
0.0279702
0.0274266
0.0270238
0.0265578
0.0257972
0.0246519
0.0237542
0.0219377
0.0203069
0.0190123
0.0173862
0.016732
0.0160725
0.0156694
0.0153366
0.0148752
0.0145629
0.0143322
0.01415
0.0140103
0.0138484
0.0136861
0.0135743
0.0134477
0.0132962
0.0131802
0.0130999
0.0130268
0.0129535
0.0128806
0.0127983
0.0127382
0.0126839
0.0126352
0.0125817
0.0125318
0.0278422
0.0276766
0.0273202
0.0269112
0.0263539
0.0252189
0.0241656
0.023305
0.0220625
0.0201816
0.0189764
0.017795
0.0166642
0.0161209
0.0155318
0.015146
0.0147981
0.0144102
0.0141846
0.0139597
0.0138061
0.0136429
0.0135262
0.0133814
0.0132579
0.0131578
0.0130672
0.0129723
0.0128934
0.0128128
0.0127578
0.012691
0.0126329
0.0125773
0.012517
0.0124773
0.0124308
0.0123905
0.0275685
0.0272908
0.0268208
0.0262339
0.0255091
0.0240522
0.0231262
0.0221356
0.0206255
0.0190654
0.0180929
0.016978
0.0161093
0.0155138
0.0151411
0.0147542
0.0144009
0.014081
0.0138622
0.0136639
0.0135195
0.0133846
0.0132611
0.0131483
0.0130524
0.0129622
0.0128792
0.0128029
0.0127364
0.0126602
0.0126036
0.0125475
0.0124902
0.0124401
0.0123907
0.0123501
0.0123048
0.0122677
0.0273397
0.026901
0.0263636
0.0256372
0.0242781
0.0231442
0.0220996
0.0210224
0.0194622
0.0182365
0.0171401
0.0164181
0.0156008
0.0152077
0.014741
0.0144186
0.0140981
0.0138407
0.0136016
0.0134453
0.0132816
0.0131706
0.0130784
0.01297
0.0128917
0.0127992
0.0127219
0.0126539
0.0125854
0.0125341
0.0124714
0.0124225
0.0123699
0.012322
0.0122844
0.0122378
0.0122023
0.012169
0.0270532
0.0265651
0.0258603
0.024863
0.0234866
0.0221977
0.0210721
0.0198453
0.0185722
0.0174547
0.016471
0.0158505
0.0152969
0.0148806
0.0144058
0.0141256
0.0138508
0.0135881
0.0134069
0.0132485
0.0131253
0.0130164
0.0129216
0.0128221
0.012754
0.0126636
0.0126
0.0125404
0.0124724
0.0124178
0.012359
0.012319
0.0122716
0.0122253
0.0121903
0.012153
0.0121183
0.0120828
0.0268124
0.0261683
0.0254229
0.0241991
0.022761
0.0216424
0.0205519
0.0190792
0.0177584
0.0168695
0.0161177
0.0155052
0.0150326
0.0146578
0.014213
0.0139534
0.01367
0.0134225
0.0132648
0.0131178
0.0130013
0.0128881
0.012786
0.0126932
0.0126279
0.0125557
0.01249
0.0124298
0.0123776
0.0123243
0.0122781
0.0122337
0.0121885
0.0121524
0.0121131
0.0120846
0.0120508
0.0120179
0.0265737
0.0258251
0.0250118
0.0236141
0.0222077
0.020892
0.0198402
0.0185327
0.0173635
0.0165084
0.0157554
0.0151745
0.014764
0.0143995
0.0139852
0.0137478
0.0134899
0.0132897
0.0131238
0.0129881
0.0128722
0.0127626
0.0126794
0.0125912
0.0125186
0.0124537
0.012395
0.0123398
0.012291
0.0122434
0.0122032
0.0121583
0.0121206
0.012083
0.0120546
0.0120184
0.0119919
0.0119608
0.0263644
0.0255487
0.0244591
0.0230203
0.0216797
0.020406
0.0192848
0.0178715
0.0168769
0.0162253
0.0154868
0.0149712
0.0145431
0.0141913
0.0138253
0.0136056
0.0133598
0.0131769
0.0130127
0.0128776
0.0127632
0.0126711
0.0125885
0.0125095
0.0124378
0.0123705
0.0123197
0.0122645
0.0122232
0.0121785
0.0121329
0.0120972
0.0120577
0.0120239
0.0119964
0.0119673
0.0119411
0.011913
0.0261442
0.0251508
0.0239478
0.0225123
0.0209734
0.0197706
0.0186848
0.0175042
0.0165274
0.0158497
0.0152161
0.0147
0.0143574
0.014006
0.0136658
0.0134586
0.0132411
0.0130624
0.0129182
0.0127797
0.0126759
0.0125879
0.0125166
0.0124355
0.0123679
0.0123036
0.0122505
0.0122007
0.0121615
0.0121209
0.0120799
0.0120431
0.0120093
0.011976
0.0119498
0.0119238
0.0118986
0.0118757
0.0259077
0.0247831
0.0234953
0.0220104
0.0205306
0.0194189
0.0183657
0.0171737
0.0162656
0.0155667
0.0149819
0.0145563
0.0141991
0.0138664
0.013556
0.0133545
0.0131405
0.012985
0.0128358
0.0127165
0.0126188
0.0125213
0.0124424
0.012372
0.0123052
0.0122458
0.0121931
0.0121465
0.0121099
0.0120671
0.0120312
0.0119969
0.0119672
0.0119365
0.0119113
0.0118874
0.011865
0.0118416
0.0257141
0.0244326
0.0230784
0.0216867
0.0202423
0.0191205
0.0179659
0.0168773
0.0160589
0.0153297
0.0147881
0.0143656
0.014023
0.0137354
0.0134567
0.013225
0.0130539
0.0128913
0.0127573
0.012648
0.0125556
0.0124617
0.0123836
0.0123131
0.0122516
0.0121941
0.0121448
0.0121032
0.0120647
0.0120283
0.0119893
0.0119587
0.0119295
0.0119018
0.0118795
0.0118573
0.0118342
0.0118156
0.0255249
0.0242353
0.0227041
0.0211671
0.0198649
0.0188024
0.0176606
0.016597
0.0157743
0.015145
0.014603
0.0142197
0.0139072
0.0136031
0.0133422
0.0131341
0.0129704
0.0128256
0.0126959
0.0125919
0.0125004
0.0124069
0.0123286
0.0122701
0.0122067
0.0121503
0.0121055
0.012065
0.0120244
0.0119892
0.0119549
0.011927
0.0118989
0.0118759
0.0118519
0.0118322
0.0118103
0.0117938
0.0252902
0.0238264
0.0224114
0.0208758
0.019599
0.0185393
0.017366
0.0163355
0.0156174
0.0149688
0.0144916
0.0141057
0.0137654
0.0135172
0.0132625
0.0130633
0.0128961
0.012765
0.0126466
0.0125378
0.0124436
0.0123636
0.0122868
0.0122245
0.0121669
0.012112
0.0120668
0.0120255
0.0119911
0.0119555
0.0119264
0.0118993
0.0118724
0.0118514
0.0118291
0.0118093
0.0117903
0.011775
0.025127
0.0234981
0.0220101
0.0206507
0.0194038
0.0182945
0.0171703
0.0161788
0.0154711
0.0148763
0.0143951
0.0140047
0.0136871
0.0134402
0.0131954
0.0129958
0.0128304
0.0127053
0.0125904
0.01249
0.0123995
0.0123219
0.0122515
0.0121885
0.0121318
0.0120818
0.0120401
0.0119981
0.0119644
0.0119324
0.0119022
0.0118763
0.0118498
0.0118303
0.0118101
0.0117917
0.0117747
0.0117593
0.0248118
0.0232527
0.0217784
0.0203339
0.0191011
0.01803
0.0169468
0.0160183
0.0153254
0.0147442
0.0142636
0.0139149
0.0136189
0.0133692
0.0131366
0.0129475
0.0127846
0.012667
0.0125491
0.0124507
0.012359
0.0122881
0.0122158
0.0121549
0.0121016
0.0120535
0.0120095
0.0119736
0.0119393
0.0119078
0.0118809
0.0118552
0.0118325
0.0118124
0.0117942
0.0117763
0.0117617
0.0117475
0.0245985
0.0229215
0.0214695
0.0200977
0.0189482
0.0178387
0.016775
0.015891
0.0152062
0.0146265
0.0141907
0.0138317
0.0135422
0.0133039
0.0130804
0.0128907
0.0127446
0.0126228
0.0125054
0.0124152
0.0123246
0.0122512
0.0121822
0.0121251
0.0120756
0.0120273
0.0119856
0.0119488
0.0119179
0.0118895
0.0118627
0.0118387
0.011816
0.0117981
0.0117804
0.0117641
0.011751
0.0117378
0.0243311
0.022659
0.021213
0.0198594
0.0187506
0.0176333
0.0166135
0.0157816
0.0151079
0.0145399
0.0141168
0.0137759
0.0134737
0.0132413
0.0130322
0.012849
0.0127073
0.0125885
0.0124707
0.0123818
0.0122943
0.0122234
0.0121555
0.0120994
0.0120509
0.0120039
0.0119658
0.0119306
0.0118988
0.0118726
0.0118456
0.0118244
0.0118037
0.0117845
0.0117691
0.0117548
0.0117423
0.01173
0.024192
0.0225154
0.020968
0.0196602
0.0185351
0.017453
0.0165028
0.0156686
0.0150235
0.0144868
0.0140536
0.0137068
0.0134245
0.0131922
0.0129873
0.0128184
0.0126781
0.0125482
0.0124442
0.0123516
0.0122685
0.012197
0.0121317
0.0120812
0.0120307
0.011986
0.011947
0.011914
0.0118841
0.0118578
0.0118326
0.0118123
0.0117919
0.0117742
0.0117601
0.0117463
0.0117344
0.0117236
0.0240058
0.0222163
0.0207502
0.0194665
0.0184076
0.0173342
0.0163857
0.0156044
0.01495
0.0144434
0.013996
0.0136623
0.0133755
0.0131532
0.0129523
0.012787
0.0126497
0.0125199
0.0124181
0.0123251
0.0122437
0.0121755
0.012112
0.0120617
0.012014
0.0119705
0.0119339
0.0119
0.011871
0.0118452
0.011821
0.0118018
0.0117827
0.0117659
0.0117523
0.01174
0.011729
0.0117189
0.0238265
0.0220228
0.020597
0.0193518
0.0182997
0.0172155
0.0162778
0.015523
0.0148971
0.0143944
0.0139625
0.0136233
0.0133404
0.0131204
0.0129188
0.012762
0.0126226
0.0124978
0.0123974
0.0123064
0.0122253
0.0121578
0.0120949
0.0120454
0.0119991
0.0119585
0.0119209
0.0118877
0.01186
0.0118344
0.011812
0.0117926
0.0117746
0.0117598
0.0117464
0.0117349
0.0117247
0.011715
0.0235773
0.0218075
0.0203927
0.0192195
0.0181301
0.0171092
0.016212
0.0154664
0.0148556
0.0143588
0.0139324
0.0135903
0.013308
0.0130893
0.0129014
0.0127416
0.0126048
0.0124789
0.0123801
0.0122904
0.0122103
0.0121422
0.0120823
0.0120331
0.0119866
0.0119456
0.0119103
0.0118777
0.0118505
0.0118258
0.0118039
0.0117859
0.0117689
0.0117544
0.0117422
0.0117306
0.0117213
0.0117125
0.023419
0.0216481
0.0201871
0.019017
0.0180049
0.0170065
0.0161503
0.0154191
0.0148114
0.0143239
0.0139017
0.0135662
0.0132841
0.0130659
0.0128815
0.012726
0.0125814
0.0124659
0.0123611
0.0122759
0.0121978
0.0121288
0.0120708
0.0120212
0.0119764
0.0119367
0.0119017
0.0118695
0.0118435
0.0118191
0.0117979
0.0117805
0.0117648
0.0117503
0.0117384
0.0117278
0.011719
0.0117108
0.0232625
0.021448
0.0200668
0.0189151
0.0178986
0.0169287
0.0160991
0.015379
0.0147807
0.0142947
0.0138818
0.0135487
0.0132699
0.0130509
0.0128689
0.012714
0.0125695
0.0124503
0.0123496
0.0122656
0.0121862
0.012119
0.0120607
0.0120115
0.011968
0.0119283
0.0118939
0.0118636
0.0118375
0.0118139
0.0117939
0.0117768
0.0117609
0.0117477
0.0117357
0.0117255
0.0117173
0.0117097
0.0231167
0.0212906
0.0198984
0.0188305
0.0177828
0.016861
0.0160526
0.0153431
0.0147529
0.0142813
0.0138655
0.01354
0.0132648
0.0130374
0.0128565
0.0127013
0.0125583
0.0124432
0.0123383
0.0122554
0.012178
0.0121114
0.0120542
0.0120046
0.0119619
0.0119221
0.011888
0.0118583
0.0118325
0.0118106
0.0117905
0.0117732
0.0117584
0.0117457
0.011734
0.0117244
0.0117161
0.0117093
0.0229993
0.0211348
0.0198166
0.0187187
0.0176851
0.0167779
0.0160006
0.0153124
0.0147406
0.0142658
0.0138571
0.013532
0.0132529
0.0130324
0.0128477
0.0126922
0.0125537
0.0124367
0.0123319
0.0122477
0.0121708
0.0121056
0.0120501
0.0119997
0.0119569
0.0119181
0.0118841
0.0118546
0.0118296
0.0118074
0.0117881
0.0117711
0.0117567
0.0117442
0.011733
0.0117238
0.0117159
0.0117094
0.022757
0.0209834
0.0196403
0.0186032
0.0176186
0.0167219
0.0159666
0.0152885
0.0147261
0.0142484
0.0138531
0.0135275
0.0132503
0.0130275
0.0128415
0.0126873
0.0125468
0.0124313
0.0123297
0.0122414
0.0121682
0.0121019
0.012046
0.0119966
0.0119527
0.0119147
0.0118819
0.0118523
0.0118268
0.0118058
0.0117866
0.0117703
0.0117558
0.0117434
0.0117326
0.0117238
0.0117163
0.01171
0.0226168
0.0208388
0.0195533
0.0185157
0.0175522
0.016681
0.0159298
0.0152705
0.0147155
0.0142437
0.013851
0.0135251
0.0132486
0.0130275
0.0128396
0.0126857
0.0125458
0.0124289
0.0123262
0.0122399
0.0121653
0.0121001
0.012043
0.0119944
0.0119506
0.0119129
0.0118797
0.0118511
0.0118257
0.0118045
0.0117861
0.0117699
0.0117558
0.0117433
0.0117332
0.0117242
0.011717
0.011711
0.0224995
0.0207224
0.0194584
0.0184302
0.0174828
0.016643
0.0159034
0.0152545
0.0147031
0.0142424
0.0138484
0.0135297
0.0132526
0.013027
0.0128407
0.0126859
0.0125461
0.0124288
0.0123251
0.0122407
0.0121646
0.0120989
0.012042
0.0119934
0.0119495
0.0119127
0.0118789
0.0118509
0.0118254
0.0118046
0.0117863
0.0117704
0.011756
0.0117442
0.0117341
0.0117254
0.0117182
0.0117124
0.0223939
0.0205936
0.0193847
0.0183579
0.0174194
0.0166112
0.0158785
0.0152411
0.0147012
0.014241
0.01385
0.0135334
0.0132557
0.0130322
0.012845
0.0126874
0.0125487
0.0124311
0.0123269
0.0122417
0.0121657
0.0120996
0.0120428
0.0119935
0.0119505
0.0119128
0.01188
0.0118513
0.0118262
0.0118054
0.0117872
0.0117713
0.0117572
0.0117454
0.0117353
0.0117269
0.0117198
0.0117142
0.0222715
0.0204982
0.01925
0.0182828
0.0173504
0.0165607
0.0158474
0.0152306
0.0146966
0.0142425
0.0138559
0.0135399
0.0132658
0.0130392
0.0128506
0.012693
0.012553
0.0124335
0.0123317
0.0122445
0.0121676
0.0121018
0.0120451
0.0119958
0.0119523
0.011915
0.0118815
0.0118525
0.0118283
0.0118074
0.0117887
0.0117727
0.011759
0.0117474
0.0117373
0.0117288
0.011722
0.0117164
0.022174
0.0203823
0.0191726
0.0182097
0.0173106
0.0165269
0.0158328
0.0152222
0.0146954
0.014248
0.0138653
0.0135461
0.013273
0.013049
0.0128581
0.0126983
0.01256
0.0124388
0.0123368
0.0122492
0.0121724
0.0121052
0.0120484
0.0119987
0.0119553
0.0119174
0.0118842
0.0118554
0.0118309
0.0118095
0.0117909
0.0117751
0.0117612
0.0117495
0.0117397
0.0117313
0.0117244
0.0117189
0.0219955
0.0202919
0.019113
0.0181217
0.017264
0.0164933
0.0158111
0.0152179
0.0146959
0.014254
0.0138755
0.0135563
0.0132838
0.0130585
0.0128686
0.0127072
0.012568
0.0124457
0.0123436
0.0122539
0.0121784
0.0121103
0.0120532
0.0120034
0.0119595
0.0119213
0.0118877
0.0118593
0.0118341
0.0118127
0.0117938
0.0117778
0.0117639
0.0117524
0.0117425
0.0117341
0.0117274
0.0117218
0.0219439
0.02022
0.0190344
0.0180666
0.0172156
0.0164692
0.0157973
0.0152091
0.0146996
0.0142621
0.013886
0.0135672
0.0132962
0.0130711
0.0128799
0.0127174
0.0125783
0.0124543
0.0123512
0.0122624
0.0121846
0.0121168
0.0120588
0.012008
0.0119647
0.0119258
0.0118919
0.0118635
0.0118383
0.0118164
0.0117976
0.0117815
0.0117675
0.0117559
0.0117459
0.0117374
0.0117306
0.011725
0.0218268
0.0201129
0.0189463
0.0179927
0.0171712
0.0164319
0.0157825
0.0152058
0.0147048
0.0142723
0.0139014
0.013585
0.0133141
0.0130882
0.0128946
0.0127312
0.0125902
0.0124676
0.0123621
0.0122714
0.0121923
0.0121247
0.0120654
0.0120149
0.0119705
0.0119312
0.0118981
0.0118689
0.0118433
0.0118213
0.0118024
0.0117861
0.0117719
0.01176
0.0117499
0.0117413
0.0117342
0.0117284
0.0217249
0.0200369
0.018856
0.0179375
0.01713
0.0164114
0.0157697
0.0152034
0.0147137
0.0142854
0.0139153
0.0136046
0.0133334
0.0131046
0.0129105
0.0127466
0.0126038
0.0124823
0.0123742
0.0122833
0.0122033
0.0121345
0.0120749
0.0120231
0.0119782
0.0119388
0.0119051
0.0118753
0.0118493
0.011827
0.0118076
0.0117912
0.0117769
0.0117648
0.0117546
0.0117457
0.0117383
0.0117325
0.0216365
0.0199631
0.0188098
0.0178904
0.0170923
0.0163844
0.0157601
0.015205
0.0147193
0.0142965
0.013931
0.0136198
0.0133505
0.0131212
0.0129259
0.0127617
0.012618
0.0124957
0.012389
0.0122943
0.0122144
0.0121457
0.0120843
0.0120318
0.0119865
0.0119466
0.011912
0.0118821
0.0118561
0.011833
0.0118136
0.011797
0.0117825
0.0117699
0.0117594
0.0117503
0.0117428
0.0117367
0.0215044
0.0198411
0.01872
0.0178293
0.0170616
0.0163675
0.0157512
0.0152067
0.014729
0.0143106
0.0139487
0.0136398
0.0133725
0.0131411
0.012945
0.0127793
0.0126361
0.0125113
0.0124032
0.0123094
0.0122285
0.0121576
0.0120969
0.0120432
0.0119969
0.011956
0.0119205
0.0118898
0.0118641
0.011841
0.0118208
0.0118035
0.0117884
0.0117756
0.0117649
0.0117557
0.011748
0.0117418
0.0213937
0.019773
0.0186754
0.0177835
0.0170245
0.0163465
0.0157441
0.0152103
0.0147381
0.0143248
0.0139678
0.0136597
0.0133941
0.0131647
0.0129678
0.0127986
0.0126533
0.0125277
0.0124177
0.0123228
0.0122412
0.0121703
0.0121085
0.0120547
0.0120077
0.011967
0.0119308
0.0118996
0.0118723
0.0118488
0.0118283
0.0118106
0.0117953
0.0117821
0.0117707
0.0117613
0.0117535
0.0117471
0.0213301
0.0197158
0.0186094
0.0177465
0.0169885
0.0163297
0.0157392
0.0152139
0.014751
0.0143429
0.0139882
0.0136796
0.0134158
0.0131863
0.0129875
0.0128181
0.0126725
0.0125456
0.0124374
0.0123417
0.0122584
0.0121852
0.0121225
0.0120675
0.0120193
0.0119776
0.011941
0.0119091
0.0118815
0.0118573
0.0118365
0.0118183
0.0118027
0.0117894
0.0117778
0.0117679
0.0117598
0.011753
0.0212144
0.0196561
0.0185521
0.0176956
0.0169642
0.0163136
0.0157365
0.0152211
0.0147626
0.0143633
0.0140117
0.0137074
0.0134413
0.013212
0.0130153
0.0128442
0.0126951
0.0125679
0.0124559
0.0123591
0.0122743
0.0122005
0.0121365
0.0120811
0.0120326
0.0119894
0.0119522
0.0119198
0.0118914
0.0118667
0.0118454
0.0118271
0.011811
0.011797
0.0117854
0.0117754
0.0117669
0.0117596
0.0211615
0.0195901
0.0185018
0.0176603
0.0169448
0.0163048
0.0157359
0.0152294
0.0147811
0.0143831
0.0140345
0.0137306
0.0134668
0.013237
0.0130392
0.0128671
0.0127171
0.0125883
0.0124766
0.0123787
0.0122929
0.0122189
0.0121535
0.0120963
0.0120476
0.0120044
0.0119656
0.0119326
0.011904
0.0118786
0.0118561
0.011837
0.0118207
0.0118065
0.0117941
0.0117835
0.0117745
0.0117669
0.0210858
0.0195255
0.0184474
0.0176283
0.0169177
0.0162935
0.015736
0.0152377
0.0147959
0.0144033
0.0140561
0.0137539
0.0134947
0.0132656
0.0130662
0.0128935
0.0127444
0.0126141
0.0124993
0.0123997
0.0123147
0.0122377
0.0121726
0.012115
0.0120635
0.0120194
0.011981
0.0119462
0.0119158
0.01189
0.0118674
0.0118477
0.0118307
0.0118158
0.011803
0.0117919
0.0117826
0.0117748
0.0209375
0.0194562
0.0183933
0.017586
0.0169014
0.0162876
0.0157378
0.0152483
0.0148119
0.0144224
0.014084
0.013785
0.0135227
0.0132913
0.0130918
0.0129191
0.0127674
0.0126379
0.0125219
0.0124217
0.0123339
0.0122586
0.0121911
0.0121326
0.0120806
0.0120354
0.0119957
0.0119607
0.0119304
0.0119026
0.0118796
0.0118592
0.0118415
0.0118261
0.0118127
0.0118012
0.0117915
0.0117832
0.0208638
0.0193807
0.0183507
0.0175579
0.0168789
0.0162798
0.015742
0.0152612
0.0148306
0.0144487
0.0141115
0.0138154
0.0135545
0.0133268
0.0131278
0.0129519
0.0127981
0.0126664
0.0125508
0.0124489
0.0123603
0.0122813
0.0122121
0.0121526
0.0120992
0.0120529
0.0120122
0.0119763
0.0119452
0.0119175
0.011893
0.0118717
0.0118534
0.0118375
0.0118233
0.0118113
0.0118012
0.0117924
0.0207838
0.0193466
0.0183093
0.0175312
0.016864
0.0162723
0.0157483
0.0152747
0.0148482
0.0144744
0.0141406
0.0138456
0.0135873
0.0133577
0.0131595
0.0129826
0.0128307
0.0126963
0.0125771
0.0124762
0.0123856
0.0123052
0.0122348
0.012174
0.0121194
0.0120718
0.0120298
0.0119931
0.0119611
0.0119321
0.0119074
0.0118852
0.0118665
0.0118499
0.0118354
0.011823
0.0118122
0.0118032
0.0207205
0.0192843
0.0182734
0.0175103
0.0168474
0.0162684
0.0157543
0.0152913
0.0148725
0.0144998
0.0141696
0.0138774
0.0136216
0.0133899
0.0131927
0.0130129
0.0128605
0.0127274
0.0126086
0.012505
0.0124129
0.0123304
0.0122587
0.0121965
0.0121408
0.0120921
0.0120492
0.012011
0.0119784
0.0119491
0.0119234
0.0119008
0.0118809
0.0118635
0.0118484
0.0118351
0.0118241
0.0118145
0.0206443
0.0192275
0.0182344
0.0174787
0.0168363
0.0162671
0.015768
0.0153132
0.0149022
0.0145321
0.0142073
0.0139126
0.013658
0.01343
0.0132293
0.0130512
0.0128943
0.01276
0.0126401
0.0125372
0.0124431
0.0123604
0.0122871
0.0122212
0.0121646
0.0121141
0.0120711
0.0120324
0.0119973
0.0119669
0.0119408
0.0119171
0.0118968
0.0118792
0.011863
0.0118495
0.0118374
0.011827
0.0205615
0.0191657
0.0181976
0.0174585
0.0168246
0.0162712
0.0157759
0.0153321
0.0149256
0.0145627
0.0142399
0.0139478
0.0136962
0.0134676
0.0132665
0.0130886
0.0129312
0.0127944
0.0126735
0.0125684
0.0124745
0.0123895
0.0123143
0.0122479
0.0121895
0.0121379
0.0120938
0.0120534
0.0120178
0.0119863
0.0119595
0.0119351
0.0119139
0.0118952
0.0118785
0.011864
0.0118517
0.0118405
0.0204864
0.019111
0.0181674
0.0174415
0.016819
0.0162722
0.0157898
0.0153495
0.0149523
0.0145932
0.0142744
0.0139847
0.0137333
0.0135056
0.0133062
0.013127
0.0129691
0.0128292
0.0127087
0.0126021
0.0125073
0.01242
0.0123436
0.0122762
0.012216
0.0121642
0.0121177
0.0120765
0.0120394
0.0120071
0.0119793
0.0119543
0.0119327
0.0119129
0.0118957
0.0118808
0.0118675
0.0118562
0.0204215
0.0190745
0.0181457
0.0174271
0.0168152
0.016277
0.0158075
0.015372
0.0149767
0.0146258
0.0143121
0.0140208
0.01377
0.0135438
0.0133473
0.0131678
0.013009
0.0128675
0.0127458
0.012638
0.0125416
0.0124547
0.0123747
0.0123071
0.0122443
0.0121919
0.012145
0.0121007
0.0120633
0.012031
0.0120015
0.0119765
0.0119531
0.0119324
0.011914
0.011899
0.0118858
0.0118739
0.0203387
0.0190434
0.0181239
0.0174147
0.0168131
0.0162872
0.0158188
0.015398
0.0150066
0.0146644
0.0143498
0.0140678
0.0138213
0.013593
0.0133916
0.0132116
0.0130505
0.0129068
0.0127853
0.012676
0.0125792
0.0124893
0.012408
0.0123387
0.012277
0.0122216
0.0121738
0.0121301
0.0120908
0.0120552
0.0120257
0.0119988
0.0119749
0.0119537
0.0119358
0.0119192
0.0119058
0.0118935
0.0202863
0.0190124
0.0181023
0.0174026
0.0168099
0.0163012
0.0158379
0.0154245
0.0150388
0.0146975
0.0143859
0.014109
0.0138633
0.0136361
0.0134377
0.0132569
0.013095
0.0129514
0.0128249
0.012714
0.0126186
0.012527
0.0124469
0.0123755
0.0123116
0.0122551
0.012205
0.0121591
0.0121209
0.0120847
0.0120533
0.0120257
0.0120011
0.0119788
0.0119593
0.0119418
0.0119269
0.0119135
0.020217
0.0189669
0.0180808
0.0173936
0.0168142
0.0163113
0.0158552
0.0154555
0.0150811
0.0147351
0.0144353
0.0141648
0.0139139
0.0136851
0.0134888
0.0133066
0.0131446
0.0129953
0.0128705
0.0127597
0.0126619
0.0125685
0.0124863
0.0124135
0.0123494
0.0122921
0.0122402
0.0121935
0.012151
0.0121162
0.0120839
0.0120547
0.012028
0.0120043
0.0119844
0.011967
0.0119511
0.0119374
0.0201472
0.018914
0.0180598
0.0173888
0.0168194
0.0163232
0.0158786
0.0154832
0.0151165
0.014784
0.0144804
0.0142064
0.0139634
0.0137316
0.0135365
0.0133574
0.0131912
0.0130456
0.0129219
0.0128087
0.0127075
0.0126106
0.0125277
0.0124536
0.0123855
0.0123256
0.0122755
0.0122276
0.0121858
0.0121477
0.012114
0.0120842
0.0120573
0.0120343
0.0120124
0.0119937
0.0119772
0.011962
0.0200918
0.0188817
0.0180494
0.017388
0.016826
0.0163357
0.0159028
0.0155126
0.0151538
0.0148247
0.0145243
0.0142578
0.0140139
0.0137907
0.0135851
0.0134112
0.0132433
0.0130959
0.0129677
0.0128599
0.0127549
0.0126622
0.012574
0.0124993
0.0124314
0.0123685
0.0123135
0.0122654
0.0122215
0.0121824
0.0121489
0.0121191
0.0120901
0.0120672
0.0120443
0.012025
0.012007
0.0119902
0.0200511
0.0188724
0.0180446
0.0173883
0.0168349
0.0163589
0.0159361
0.0155458
0.0151942
0.0148666
0.0145703
0.014307
0.014063
0.0138418
0.0136475
0.0134659
0.0132995
0.0131508
0.0130255
0.0129074
0.0128055
0.0127104
0.0126224
0.0125434
0.0124772
0.0124137
0.0123551
0.0123062
0.0122613
0.0122202
0.0121855
0.0121524
0.0121247
0.0121002
0.0120764
0.012057
0.0120378
0.0120209
0.019984
0.0188595
0.0180365
0.0173893
0.0168394
0.0163774
0.01597
0.0155779
0.0152335
0.0149141
0.0146223
0.0143592
0.0141177
0.0138993
0.0137105
0.0135243
0.0133553
0.013211
0.0130812
0.012966
0.0128606
0.0127652
0.0126788
0.0125953
0.0125238
0.0124636
0.012405
0.0123526
0.0123051
0.012263
0.0122277
0.0121943
0.0121624
0.012136
0.0121114
0.0120902
0.0120722
0.0120555
0.0199287
0.0188309
0.0180246
0.017392
0.0168607
0.0164013
0.0159975
0.015622
0.0152732
0.0149645
0.0146721
0.0144114
0.014186
0.0139573
0.0137692
0.013584
0.0134192
0.0132674
0.0131386
0.0130195
0.0129152
0.0128164
0.012731
0.0126513
0.0125798
0.0125148
0.0124561
0.0124033
0.0123541
0.0123114
0.0122723
0.0122366
0.0122062
0.0121784
0.0121523
0.0121304
0.0121116
0.0120935
0.019875
0.0187834
0.0180184
0.0173992
0.0168783
0.0164251
0.0160299
0.015664
0.0153336
0.0150112
0.0147287
0.014469
0.0142406
0.0140306
0.0138321
0.0136453
0.0134798
0.0133258
0.0131979
0.0130856
0.0129748
0.0128764
0.0127923
0.0127096
0.0126337
0.0125693
0.0125051
0.0124526
0.0124075
0.0123614
0.0123198
0.0122836
0.0122511
0.0122219
0.012197
0.0121733
0.012152
0.0121328
0.019834
0.0187656
0.0180258
0.0174076
0.0168997
0.016453
0.0160691
0.0157024
0.0153835
0.0150726
0.014784
0.0145338
0.0143142
0.0140944
0.0138983
0.0137172
0.0135527
0.0134039
0.0132751
0.0131557
0.0130405
0.0129457
0.0128553
0.0127732
0.0126945
0.0126291
0.012565
0.0125087
0.0124589
0.0124147
0.0123732
0.0123335
0.0122987
0.012272
0.0122422
0.0122196
0.0121981
0.0121776
0.0197881
0.0187705
0.0180379
0.0174249
0.0169216
0.0164831
0.0161065
0.0157511
0.0154345
0.0151357
0.0148593
0.0145999
0.0143807
0.0141636
0.0139635
0.0137808
0.0136128
0.0134699
0.0133427
0.0132196
0.0131142
0.0130124
0.012924
0.0128345
0.0127611
0.0126953
0.0126302
0.0125673
0.0125169
0.0124674
0.0124273
0.01239
0.0123545
0.0123229
0.0122949
0.0122717
0.0122492
0.0122274
0.0197589
0.0187827
0.0180501
0.0174434
0.0169462
0.0165094
0.0161468
0.0158058
0.0154844
0.0151923
0.01492
0.0146658
0.0144433
0.0142334
0.0140391
0.0138521
0.0136847
0.0135427
0.013415
0.0132984
0.0131867
0.0130824
0.0129918
0.0129071
0.0128274
0.0127602
0.0126934
0.0126355
0.0125796
0.0125313
0.0124864
0.0124456
0.0124144
0.0123797