/*--------------------------------*- C++ -*----------------------------------*\
  =========                 |
  \\      /  F ield         | OpenFOAM: The Open Source CFD Toolbox
   \\    /   O peration     | Website:  https://openfoam.org
    \\  /    A nd           | Version:  9
     \\/     M anipulation  |
\*---------------------------------------------------------------------------*/
FoamFile
{
    format      ascii;
    class       volVectorField;
    location    "86400";
    object      U;
}
// * * * * * * * * * * * * * * * * * * * * * * * * * * * * * * * * * * * * * //

dimensions      [0 1 -1 0 0 0 0];

internalField   nonuniform List<vector> 
15450
(
(0.0195777 0 -0.0188672)
(0.0393954 0 -0.0180272)
(0.0604763 0 -0.0121834)
(0.0722176 0 -0.00604498)
(0.0741588 0 -0.000548285)
(0.0702231 0 0.00242563)
(0.0612833 0 0.00488649)
(0.0508845 0 0.00716755)
(0.0380291 0 0.010372)
(0.0200142 0 0.0135341)
(-0.00241285 0 0.014913)
(-0.0270587 0 0.0149664)
(-0.0551941 0 0.0274276)
(-0.0893951 0 0.0405488)
(-0.16205 0 0.0303478)
(-0.199079 0 0.0093646)
(-0.205428 0 -0.00136332)
(-0.225436 0 0.0126354)
(-0.270941 0 0.046413)
(-0.34671 0 0.0532829)
(-0.398411 0 0.016052)
(-0.423677 0 0.0143378)
(-0.50244 0 0.061832)
(-0.66963 0 0.0866181)
(-0.721584 0 -0.000756861)
(-0.691981 0 -0.0786792)
(-0.637133 0 -0.0728585)
(-0.640569 0 0.0433588)
(-0.78371 0 0.133916)
(-0.910951 0 0.0578234)
(-0.872902 0 -0.0747281)
(-0.823219 0 -0.0607445)
(-0.806619 0 0.0842205)
(-0.897318 0 0.148121)
(-1.14368 0 0.0548492)
(-1.07841 0 -0.177334)
(-0.974386 0 -0.177892)
(-0.793397 0 -0.0395128)
(0.0207468 0 -0.0423175)
(0.0370337 0 -0.0352537)
(0.0543236 0 -0.0208965)
(0.0616155 0 -0.00740646)
(0.0615075 0 0.0029627)
(0.0567603 0 0.00932362)
(0.0484775 0 0.0128454)
(0.036809 0 0.0160577)
(0.0202121 0 0.0219389)
(-0.00386383 0 0.0295801)
(-0.0375537 0 0.0369139)
(-0.0839634 0 0.0438088)
(-0.148396 0 0.0628604)
(-0.228372 0 0.0917572)
(-0.300932 0 0.0743362)
(-0.353684 0 0.0321956)
(-0.408112 0 0.0328489)
(-0.440907 0 0.0603183)
(-0.447873 0 0.0680835)
(-0.457975 0 0.0631448)
(-0.492874 0 0.0556836)
(-0.57832 0 0.113336)
(-0.610715 0 0.14782)
(-0.638233 0 0.121183)
(-0.720518 0 0.0218507)
(-0.755338 0 -0.0211015)
(-0.786837 0 0.00617701)
(-0.828693 0 0.115556)
(-0.813627 0 0.133178)
(-0.867627 0 0.052832)
(-0.939742 0 -0.0368184)
(-0.956138 0 -0.0385415)
(-0.950769 0 0.0622286)
(-0.904964 0 0.162826)
(-0.913683 0 0.124613)
(-1.01142 0 -0.0569672)
(-1.06151 0 -0.0953655)
(-1.07618 0 -0.0800431)
(0.0172102 0 -0.0699668)
(0.0298843 0 -0.0545168)
(0.0412516 0 -0.0303322)
(0.0432605 0 -0.00955108)
(0.0394417 0 0.00574373)
(0.0318145 0 0.015706)
(0.0200738 0 0.0227411)
(0.00211407 0 0.0314958)
(-0.02416 0 0.0471862)
(-0.0629754 0 0.0688839)
(-0.118553 0 0.0929489)
(-0.19509 0 0.11936)
(-0.275067 0 0.146174)
(-0.332469 0 0.155714)
(-0.37911 0 0.129592)
(-0.433381 0 0.0887761)
(-0.486794 0 0.0673456)
(-0.521496 0 0.0795598)
(-0.547996 0 0.0998369)
(-0.577757 0 0.0948611)
(-0.598537 0 0.0954305)
(-0.625212 0 0.142793)
(-0.643972 0 0.177733)
(-0.646807 0 0.17441)
(-0.689444 0 0.0910565)
(-0.761245 0 0.0078539)
(-0.787194 0 0.0193165)
(-0.81722 0 0.1107)
(-0.805313 0 0.153365)
(-0.803937 0 0.137566)
(-0.876529 0 0.0165855)
(-0.92 0 -0.0125721)
(-0.95004 0 0.0299442)
(-0.908774 0 0.12244)
(-0.876007 0 0.11896)
(-0.903944 0 0.019298)
(-0.975709 0 -0.0569276)
(-1.04092 0 -0.0467556)
(0.0133829 0 -0.0903592)
(0.0205486 0 -0.0648922)
(0.0236624 0 -0.032049)
(0.0191218 0 -0.00544768)
(0.00951069 0 0.0139008)
(-0.00516373 0 0.028141)
(-0.026764 0 0.0420222)
(-0.057112 0 0.0608255)
(-0.0969786 0 0.089312)
(-0.148782 0 0.128881)
(-0.215076 0 0.170399)
(-0.292683 0 0.197789)
(-0.356548 0 0.203706)
(-0.391124 0 0.196644)
(-0.423174 0 0.178059)
(-0.469955 0 0.144019)
(-0.523362 0 0.114547)
(-0.560247 0 0.112613)
(-0.584919 0 0.125529)
(-0.622057 0 0.12043)
(-0.646871 0 0.117744)
(-0.659209 0 0.151213)
(-0.659365 0 0.174651)
(-0.655973 0 0.177485)
(-0.66687 0 0.149127)
(-0.736283 0 0.0725331)
(-0.775572 0 0.0608307)
(-0.798493 0 0.101015)
(-0.790483 0 0.138752)
(-0.781828 0 0.138786)
(-0.803728 0 0.0932956)
(-0.871677 0 0.0332197)
(-0.897423 0 0.0451361)
(-0.896461 0 0.0765673)
(-0.87181 0 0.0887414)
(-0.872369 0 0.0662702)
(-0.923211 0 0.0103589)
(-0.967513 0 -0.00562103)
(0.0102682 0 -0.10435)
(0.00844424 0 -0.0661687)
(0.00159488 0 -0.0258888)
(-0.0108009 0 0.00574838)
(-0.029034 0 0.0306435)
(-0.0548668 0 0.0524102)
(-0.0888881 0 0.0745233)
(-0.129991 0 0.101836)
(-0.176857 0 0.139589)
(-0.230756 0 0.192202)
(-0.288166 0 0.243514)
(-0.345337 0 0.260785)
(-0.392357 0 0.243956)
(-0.421757 0 0.227286)
(-0.447004 0 0.213657)
(-0.482148 0 0.189381)
(-0.527559 0 0.160408)
(-0.567739 0 0.14862)
(-0.592822 0 0.153861)
(-0.620998 0 0.149352)
(-0.654049 0 0.139281)
(-0.668402 0 0.154761)
(-0.670087 0 0.171188)
(-0.667645 0 0.173844)
(-0.666911 0 0.165535)
(-0.696838 0 0.126575)
(-0.750209 0 0.0990441)
(-0.773054 0 0.112893)
(-0.775677 0 0.129684)
(-0.770529 0 0.132702)
(-0.773558 0 0.116473)
(-0.811726 0 0.0823029)
(-0.848485 0 0.0711868)
(-0.862616 0 0.0795701)
(-0.86122 0 0.0822917)
(-0.861756 0 0.0739078)
(-0.880349 0 0.0518247)
(-0.919559 0 0.0327586)
(0.0025982 0 -0.109841)
(-0.00756745 0 -0.0555975)
(-0.024434 0 -0.0105431)
(-0.0455186 0 0.0265527)
(-0.0742382 0 0.0589974)
(-0.110887 0 0.0885715)
(-0.153763 0 0.117009)
(-0.2006 0 0.148489)
(-0.249344 0 0.190024)
(-0.298438 0 0.245863)
(-0.335754 0 0.291533)
(-0.366345 0 0.300177)
(-0.401488 0 0.278779)
(-0.431233 0 0.255763)
(-0.455733 0 0.241435)
(-0.483162 0 0.223825)
(-0.518525 0 0.200169)
(-0.555562 0 0.183619)
(-0.583807 0 0.180462)
(-0.606197 0 0.177509)
(-0.636991 0 0.167017)
(-0.659094 0 0.165209)
(-0.668635 0 0.171847)
(-0.669982 0 0.174161)
(-0.671209 0 0.171847)
(-0.682251 0 0.156666)
(-0.715326 0 0.135919)
(-0.743174 0 0.130948)
(-0.755201 0 0.134827)
(-0.757657 0 0.134987)
(-0.761435 0 0.127931)
(-0.777121 0 0.111637)
(-0.805041 0 0.0967835)
(-0.825365 0 0.0926404)
(-0.836263 0 0.0902516)
(-0.844348 0 0.0835618)
(-0.857359 0 0.0725164)
(-0.879698 0 0.0617909)
(-0.0129083 0 -0.0985056)
(-0.0262067 0 -0.0354071)
(-0.0509971 0 0.0134069)
(-0.0809718 0 0.0570563)
(-0.118563 0 0.0968763)
(-0.161899 0 0.132042)
(-0.208557 0 0.163686)
(-0.256773 0 0.19614)
(-0.302252 0 0.235173)
(-0.341546 0 0.282463)
(-0.363775 0 0.315256)
(-0.378839 0 0.322787)
(-0.402512 0 0.307045)
(-0.429404 0 0.283523)
(-0.454044 0 0.266773)
(-0.47808 0 0.251447)
(-0.50612 0 0.232572)
(-0.537358 0 0.215579)
(-0.565338 0 0.206269)
(-0.587696 0 0.201025)
(-0.610241 0 0.19337)
(-0.633816 0 0.186188)
(-0.651104 0 0.182277)
(-0.661822 0 0.17975)
(-0.668526 0 0.177056)
(-0.676172 0 0.171014)
(-0.692183 0 0.160503)
(-0.713645 0 0.151044)
(-0.729615 0 0.146353)
(-0.739825 0 0.142411)
(-0.748035 0 0.136884)
(-0.758922 0 0.127888)
(-0.775819 0 0.117691)
(-0.794204 0 0.10892)
(-0.809187 0 0.102471)
(-0.821906 0 0.0960331)
(-0.835227 0 0.0884232)
(-0.851362 0 0.0809568)
(-0.0230851 0 -0.0735324)
(-0.0418581 0 -0.0083547)
(-0.0742979 0 0.0450273)
(-0.111853 0 0.0948129)
(-0.155048 0 0.14005)
(-0.200807 0 0.178109)
(-0.247376 0 0.210381)
(-0.29278 0 0.2408)
(-0.332318 0 0.27292)
(-0.362168 0 0.307109)
(-0.378961 0 0.33056)
(-0.388873 0 0.337079)
(-0.404323 0 0.327548)
(-0.425349 0 0.308006)
(-0.447983 0 0.290574)
(-0.47003 0 0.275476)
(-0.493576 0 0.259315)
(-0.519567 0 0.243425)
(-0.545102 0 0.231221)
(-0.567439 0 0.22257)
(-0.587712 0 0.214484)
(-0.607898 0 0.206311)
(-0.626425 0 0.198991)
(-0.641815 0 0.192505)
(-0.654619 0 0.186865)
(-0.665399 0 0.181477)
(-0.677351 0 0.174876)
(-0.692158 0 0.167365)
(-0.707082 0 0.160123)
(-0.719922 0 0.153655)
(-0.731154 0 0.147338)
(-0.742362 0 0.140278)
(-0.755248 0 0.132529)
(-0.769914 0 0.124526)
(-0.784502 0 0.11688)
(-0.798298 0 0.109776)
(-0.811984 0 0.102904)
(-0.826261 0 0.096469)
(-0.0280217 0 -0.042467)
(-0.0543413 0 0.0264609)
(-0.0924762 0 0.0831171)
(-0.135245 0 0.137195)
(-0.180792 0 0.185063)
(-0.225999 0 0.223536)
(-0.269994 0 0.254304)
(-0.310615 0 0.280361)
(-0.344853 0 0.304752)
(-0.369575 0 0.327559)
(-0.385025 0 0.343328)
(-0.395013 0 0.348196)
(-0.406495 0 0.342185)
(-0.422405 0 0.327623)
(-0.441536 0 0.311694)
(-0.461332 0 0.296875)
(-0.481876 0 0.28207)
(-0.503903 0 0.267366)
(-0.526411 0 0.254308)
(-0.547627 0 0.243495)
(-0.567142 0 0.233957)
(-0.585747 0 0.224865)
(-0.603612 0 0.21614)
(-0.62018 0 0.207946)
(-0.635234 0 0.200522)
(-0.648832 0 0.193774)
(-0.661469 0 0.187306)
(-0.674323 0 0.180598)
(-0.687557 0 0.173497)
(-0.700457 0 0.166276)
(-0.712713 0 0.159236)
(-0.724598 0 0.152241)
(-0.736656 0 0.145177)
(-0.749337 0 0.137968)
(-0.762496 0 0.130639)
(-0.775707 0 0.123469)
(-0.788924 0 0.11667)
(-0.802235 0 0.110381)
(-0.0324971 0 -0.00281235)
(-0.0635894 0 0.0673555)
(-0.105317 0 0.125624)
(-0.150516 0 0.181595)
(-0.19589 0 0.229524)
(-0.238958 0 0.266565)
(-0.279295 0 0.294249)
(-0.315325 0 0.315255)
(-0.34554 0 0.33268)
(-0.368455 0 0.347091)
(-0.384207 0 0.356179)
(-0.39561 0 0.358647)
(-0.406414 0 0.35412)
(-0.419548 0 0.343236)
(-0.435519 0 0.329634)
(-0.452898 0 0.315743)
(-0.471076 0 0.301853)
(-0.490223 0 0.288065)
(-0.509999 0 0.275037)
(-0.529487 0 0.263273)
(-0.548083 0 0.252615)
(-0.565841 0 0.242662)
(-0.582945 0 0.233159)
(-0.599358 0 0.224066)
(-0.61495 0 0.215539)
(-0.629595 0 0.207675)
(-0.643265 0 0.200345)
(-0.656248 0 0.193282)
(-0.668946 0 0.186149)
(-0.681486 0 0.178831)
(-0.693797 0 0.171505)
(-0.705864 0 0.164302)
(-0.717785 0 0.15724)
(-0.729735 0 0.150246)
(-0.741864 0 0.143235)
(-0.754163 0 0.136273)
(-0.766553 0 0.129555)
(-0.778965 0 0.123232)
(-0.0350537 0 0.0413441)
(-0.0694419 0 0.111749)
(-0.112886 0 0.17022)
(-0.15849 0 0.225849)
(-0.202189 0 0.272183)
(-0.242401 0 0.306475)
(-0.27897 0 0.330297)
(-0.311242 0 0.346526)
(-0.338611 0 0.358238)
(-0.360585 0 0.366423)
(-0.377375 0 0.370589)
(-0.39061 0 0.370388)
(-0.402377 0 0.365734)
(-0.414789 0 0.356761)
(-0.428905 0 0.345097)
(-0.444362 0 0.332392)
(-0.460676 0 0.319359)
(-0.477735 0 0.306302)
(-0.495358 0 0.293591)
(-0.513097 0 0.281567)
(-0.530512 0 0.270313)
(-0.547417 0 0.259722)
(-0.563806 0 0.249634)
(-0.579703 0 0.239971)
(-0.595079 0 0.230778)
(-0.609836 0 0.222115)
(-0.623879 0 0.21397)
(-0.637204 0 0.206229)
(-0.649964 0 0.198684)
(-0.662369 0 0.191163)
(-0.674541 0 0.183665)
(-0.686508 0 0.176276)
(-0.698284 0 0.169057)
(-0.709909 0 0.161998)
(-0.721469 0 0.155044)
(-0.733046 0 0.148197)
(-0.744653 0 0.141537)
(-0.75624 0 0.135167)
(-0.0364968 0 0.0884075)
(-0.0724099 0 0.15794)
(-0.116025 0 0.215199)
(-0.160757 0 0.268866)
(-0.202048 0 0.31237)
(-0.239191 0 0.34311)
(-0.272394 0 0.362966)
(-0.301719 0 0.375022)
(-0.327071 0 0.382239)
(-0.348409 0 0.385917)
(-0.366052 0 0.386377)
(-0.380907 0 0.383756)
(-0.394115 0 0.37819)
(-0.406994 0 0.369781)
(-0.420521 0 0.359238)
(-0.43489 0 0.3475)
(-0.449943 0 0.33521)
(-0.465561 0 0.322746)
(-0.481622 0 0.310399)
(-0.497898 0 0.298414)
(-0.514122 0 0.286925)
(-0.530099 0 0.275951)
(-0.545734 0 0.265443)
(-0.561005 0 0.25536)
(-0.575893 0 0.245702)
(-0.590339 0 0.236487)
(-0.604269 0 0.227719)
(-0.617632 0 0.219354)
(-0.630446 0 0.21129)
(-0.642816 0 0.203413)
(-0.654863 0 0.195667)
(-0.666659 0 0.188068)
(-0.678232 0 0.180648)
(-0.689596 0 0.173418)
(-0.700788 0 0.166362)
(-0.711864 0 0.159475)
(-0.722858 0 0.152779)
(-0.733765 0 0.146327)
(-0.0367672 0 0.136233)
(-0.072972 0 0.204447)
(-0.115804 0 0.259497)
(-0.158886 0 0.31004)
(-0.197538 0 0.349817)
(-0.231783 0 0.376699)
(-0.262195 0 0.392851)
(-0.289224 0 0.401386)
(-0.313078 0 0.405087)
(-0.333901 0 0.405474)
(-0.352033 0 0.403164)
(-0.368014 0 0.398514)
(-0.38249 0 0.391795)
(-0.396227 0 0.383177)
(-0.409923 0 0.373014)
(-0.423926 0 0.361813)
(-0.438301 0 0.350025)
(-0.453023 0 0.33798)
(-0.468033 0 0.325927)
(-0.483214 0 0.314059)
(-0.498422 0 0.302504)
(-0.513513 0 0.291326)
(-0.528389 0 0.280538)
(-0.542999 0 0.270137)
(-0.557308 0 0.260122)
(-0.571274 0 0.250498)
(-0.584847 0 0.241263)
(-0.597981 0 0.232398)
(-0.61066 0 0.223857)
(-0.622915 0 0.215579)
(-0.634812 0 0.207517)
(-0.646412 0 0.199656)
(-0.657752 0 0.191999)
(-0.668851 0 0.184551)
(-0.67973 0 0.177312)
(-0.690418 0 0.170278)
(-0.70094 0 0.163455)
(-0.711306 0 0.156862)
(-0.0361048 0 0.183753)
(-0.0717696 0 0.250253)
(-0.113191 0 0.302385)
(-0.154196 0 0.349023)
(-0.190297 0 0.384624)
(-0.222012 0 0.407695)
(-0.250187 0 0.420501)
(-0.275407 0 0.426076)
(-0.298088 0 0.427026)
(-0.318445 0 0.424937)
(-0.336758 0 0.42053)
(-0.353395 0 0.414239)
(-0.368748 0 0.406393)
(-0.383262 0 0.397216)
(-0.397386 0 0.386946)
(-0.411429 0 0.375879)
(-0.425541 0 0.364306)
(-0.439772 0 0.352477)
(-0.45412 0 0.34059)
(-0.46854 0 0.328799)
(-0.48296 0 0.317218)
(-0.497295 0 0.305915)
(-0.511471 0 0.29493)
(-0.525439 0 0.284282)
(-0.539158 0 0.273981)
(-0.552592 0 0.26403)
(-0.565705 0 0.254426)
(-0.578465 0 0.245163)
(-0.590851 0 0.236219)
(-0.602867 0 0.227565)
(-0.614539 0 0.219169)
(-0.625901 0 0.211014)
(-0.636981 0 0.203091)
(-0.647798 0 0.195397)
(-0.658369 0 0.187931)
(-0.66871 0 0.180691)
(-0.678836 0 0.173677)
(-0.688756 0 0.166895)
(-0.0348547 0 0.230122)
(-0.0693759 0 0.294626)
(-0.108986 0 0.343404)
(-0.147704 0 0.38577)
(-0.181506 0 0.417111)
(-0.211107 0 0.436556)
(-0.237487 0 0.446358)
(-0.261288 0 0.449432)
(-0.283016 0 0.448207)
(-0.302913 0 0.44419)
(-0.321194 0 0.438139)
(-0.338126 0 0.430517)
(-0.353976 0 0.42166)
(-0.369016 0 0.411814)
(-0.383524 0 0.401182)
(-0.39773 0 0.389967)
(-0.411782 0 0.378367)
(-0.425763 0 0.366559)
(-0.439706 0 0.354695)
(-0.453608 0 0.342896)
(-0.467443 0 0.331255)
(-0.481169 0 0.319836)
(-0.494742 0 0.308684)
(-0.508124 0 0.297826)
(-0.521283 0 0.287278)
(-0.534187 0 0.277048)
(-0.546811 0 0.267137)
(-0.559134 0 0.257542)
(-0.571141 0 0.248257)
(-0.582827 0 0.239267)
(-0.594198 0 0.230553)
(-0.605269 0 0.222101)
(-0.616054 0 0.213898)
(-0.626566 0 0.205941)
(-0.636818 0 0.198226)
(-0.64682 0 0.190748)
(-0.656581 0 0.183506)
(-0.666108 0 0.176501)
(-0.0332172 0 0.274696)
(-0.066249 0 0.33709)
(-0.103835 0 0.382335)
(-0.140213 0 0.420364)
(-0.171947 0 0.447602)
(-0.199807 0 0.463666)
(-0.224746 0 0.470787)
(-0.24743 0 0.471726)
(-0.268365 0 0.468721)
(-0.2878 0 0.463146)
(-0.305903 0 0.455761)
(-0.322882 0 0.44703)
(-0.33893 0 0.437283)
(-0.35423 0 0.426763)
(-0.368962 0 0.415659)
(-0.383285 0 0.404135)
(-0.39732 0 0.392337)
(-0.411149 0 0.380398)
(-0.424819 0 0.368432)
(-0.438349 0 0.356533)
(-0.451741 0 0.344776)
(-0.464981 0 0.333213)
(-0.478044 0 0.321886)
(-0.49091 0 0.310824)
(-0.503555 0 0.300046)
(-0.515958 0 0.289562)
(-0.528102 0 0.279376)
(-0.539975 0 0.269493)
(-0.55157 0 0.259912)
(-0.562878 0 0.250623)
(-0.573897 0 0.241613)
(-0.584631 0 0.232873)
(-0.595086 0 0.224391)
(-0.605268 0 0.216165)
(-0.615186 0 0.208189)
(-0.624845 0 0.200458)
(-0.634252 0 0.19297)
(-0.64341 0 0.185721)
(-0.0313902 0 0.31708)
(-0.0627527 0 0.377359)
(-0.0982329 0 0.419043)
(-0.13234 0 0.452898)
(-0.162211 0 0.476337)
(-0.188589 0 0.489329)
(-0.212347 0 0.494071)
(-0.234121 0 0.493159)
(-0.254376 0 0.488637)
(-0.273342 0 0.481753)
(-0.29117 0 0.473239)
(-0.308026 0 0.463552)
(-0.324057 0 0.453011)
(-0.339399 0 0.441846)
(-0.354178 0 0.430236)
(-0.368506 0 0.418324)
(-0.382475 0 0.406229)
(-0.396156 0 0.394057)
(-0.409595 0 0.381895)
(-0.422821 0 0.369818)
(-0.435849 0 0.357886)
(-0.448679 0 0.34614)
(-0.461304 0 0.334616)
(-0.473714 0 0.323339)
(-0.485895 0 0.312329)
(-0.497834 0 0.301599)
(-0.509525 0 0.291157)
(-0.520964 0 0.281011)
(-0.532144 0 0.271161)
(-0.543056 0 0.261597)
(-0.553697 0 0.25231)
(-0.564066 0 0.243293)
(-0.574165 0 0.234539)
(-0.583997 0 0.226045)
(-0.593567 0 0.217807)
(-0.602877 0 0.209818)
(-0.611931 0 0.202075)
(-0.620731 0 0.194575)
(-0.0294686 0 0.357026)
(-0.0590716 0 0.415334)
(-0.092508 0 0.45361)
(-0.1245 0 0.483568)
(-0.152697 0 0.503536)
(-0.177771 0 0.513768)
(-0.200514 0 0.516395)
(-0.2215 0 0.513847)
(-0.241133 0 0.507988)
(-0.259622 0 0.499961)
(-0.277105 0 0.490459)
(-0.293718 0 0.479925)
(-0.309582 0 0.468661)
(-0.324803 0 0.456887)
(-0.339477 0 0.444769)
(-0.35369 0 0.432435)
(-0.367512 0 0.41999)
(-0.381001 0 0.407522)
(-0.394198 0 0.395102)
(-0.407134 0 0.382791)
(-0.419827 0 0.370636)
(-0.432287 0 0.358673)
(-0.444515 0 0.346927)
(-0.45651 0 0.335418)
(-0.468268 0 0.324168)
(-0.479781 0 0.313194)
(-0.491052 0 0.302507)
(-0.50208 0 0.292113)
(-0.512854 0 0.282005)
(-0.523371 0 0.272178)
(-0.533625 0 0.262625)
(-0.543618 0 0.253342)
(-0.553349 0 0.244324)
(-0.56282 0 0.235569)
(-0.572032 0 0.22707)
(-0.580988 0 0.218824)
(-0.589689 0 0.210826)
(-0.598137 0 0.203073)
(-0.0275934 0 0.394521)
(-0.0554866 0 0.45108)
(-0.0869621 0 0.486136)
(-0.11698 0 0.512494)
(-0.143646 0 0.529327)
(-0.167533 0 0.537108)
(-0.189353 0 0.537864)
(-0.20961 0 0.533857)
(-0.228646 0 0.526797)
(-0.24664 0 0.517742)
(-0.263718 0 0.507346)
(-0.279999 0 0.496035)
(-0.295584 0 0.484099)
(-0.310564 0 0.471743)
(-0.325017 0 0.459124)
(-0.339011 0 0.446358)
(-0.352605 0 0.433539)
(-0.365844 0 0.420741)
(-0.378767 0 0.408027)
(-0.3914 0 0.395446)
(-0.403763 0 0.383037)
(-0.415868 0 0.370828)
(-0.427719 0 0.35884)
(-0.439322 0 0.34709)
(-0.450685 0 0.335599)
(-0.461805 0 0.324384)
(-0.472681 0 0.313455)
(-0.483313 0 0.302814)
(-0.493694 0 0.292453)
(-0.50382 0 0.282369)
(-0.513691 0 0.272558)
(-0.523307 0 0.263017)
(-0.532667 0 0.253742)
(-0.541774 0 0.24473)
(-0.550627 0 0.235976)
(-0.559228 0 0.227476)
(-0.567579 0 0.219227)
(-0.57568 0 0.211222)
(-0.0258186 0 0.429666)
(-0.0521384 0 0.484658)
(-0.0817946 0 0.516709)
(-0.110003 0 0.539793)
(-0.135257 0 0.553816)
(-0.158024 0 0.559423)
(-0.178949 0 0.558521)
(-0.198474 0 0.553204)
(-0.216888 0 0.545051)
(-0.234344 0 0.535052)
(-0.250956 0 0.523831)
(-0.26683 0 0.511797)
(-0.282052 0 0.499227)
(-0.296703 0 0.486318)
(-0.31085 0 0.473213)
(-0.324549 0 0.460017)
(-0.337848 0 0.446817)
(-0.350788 0 0.433677)
(-0.3634 0 0.420651)
(-0.375709 0 0.40778)
(-0.387733 0 0.395096)
(-0.399484 0 0.382623)
(-0.41097 0 0.370379)
(-0.4222 0 0.358381)
(-0.433186 0 0.346647)
(-0.443927 0 0.33519)
(-0.454421 0 0.324017)
(-0.464668 0 0.313126)
(-0.474664 0 0.302513)
(-0.48441 0 0.292177)
(-0.493904 0 0.282113)
(-0.503148 0 0.27232)
(-0.512143 0 0.262793)
(-0.520888 0 0.25353)
(-0.529385 0 0.244526)
(-0.537635 0 0.235777)
(-0.54564 0 0.22728)
(-0.5534 0 0.219029)
(-0.0242274 0 0.462592)
(-0.049108 0 0.516261)
(-0.0770866 0 0.545521)
(-0.103643 0 0.565613)
(-0.127581 0 0.577095)
(-0.14927 0 0.580748)
(-0.169296 0 0.578356)
(-0.188058 0 0.571851)
(-0.205805 0 0.562696)
(-0.22267 0 0.551828)
(-0.238759 0 0.539844)
(-0.254161 0 0.527139)
(-0.268959 0 0.513977)
(-0.283218 0 0.500544)
(-0.296996 0 0.48697)
(-0.310341 0 0.473356)
(-0.323296 0 0.459778)
(-0.335894 0 0.446293)
(-0.348164 0 0.432948)
(-0.360126 0 0.419779)
(-0.371798 0 0.406811)
(-0.383191 0 0.394065)
(-0.394315 0 0.381558)
(-0.40518 0 0.369307)
(-0.415796 0 0.357325)
(-0.426165 0 0.345621)
(-0.436285 0 0.334199)
(-0.446156 0 0.323058)
(-0.455778 0 0.312196)
(-0.465151 0 0.30161)
(-0.474278 0 0.291298)
(-0.483157 0 0.281257)
(-0.491792 0 0.271483)
(-0.500182 0 0.261974)
(-0.50833 0 0.252725)
(-0.516236 0 0.243733)
(-0.523901 0 0.234993)
(-0.531328 0 0.226501)
(-0.0229634 0 0.493645)
(-0.0464037 0 0.546063)
(-0.0728354 0 0.572705)
(-0.0978766 0 0.590052)
(-0.120567 0 0.599213)
(-0.141198 0 0.601084)
(-0.160309 0 0.597341)
(-0.178269 0 0.589756)
(-0.195304 0 0.579685)
(-0.211533 0 0.568018)
(-0.22705 0 0.555333)
(-0.241938 0 0.542005)
(-0.256263 0 0.52829)
(-0.270083 0 0.51436)
(-0.283447 0 0.500339)
(-0.296398 0 0.486321)
(-0.308973 0 0.472374)
(-0.3212 0 0.458549)
(-0.333103 0 0.444887)
(-0.3447 0 0.431417)
(-0.356006 0 0.418163)
(-0.367035 0 0.405143)
(-0.377794 0 0.392373)
(-0.388294 0 0.379866)
(-0.398543 0 0.367633)
(-0.408543 0 0.35568)
(-0.418293 0 0.344009)
(-0.427795 0 0.33262)
(-0.43705 0 0.32151)
(-0.44606 0 0.310678)
(-0.454826 0 0.300121)
(-0.463349 0 0.289836)
(-0.471631 0 0.27982)
(-0.479674 0 0.270069)
(-0.48748 0 0.260581)
(-0.495049 0 0.25135)
(-0.502383 0 0.242373)
(-0.509485 0 0.233645)
(-0.0217213 0 0.523083)
(-0.0439065 0 0.574159)
(-0.0689378 0 0.598387)
(-0.0925815 0 0.613194)
(-0.114078 0 0.620205)
(-0.133666 0 0.620435)
(-0.151851 0 0.615451)
(-0.168984 0 0.606881)
(-0.185276 0 0.595978)
(-0.200838 0 0.583587)
(-0.215754 0 0.570259)
(-0.230093 0 0.556358)
(-0.243912 0 0.542127)
(-0.257262 0 0.527731)
(-0.270185 0 0.513288)
(-0.282717 0 0.498884)
(-0.294889 0 0.484581)
(-0.306723 0 0.470424)
(-0.318241 0 0.456449)
(-0.32946 0 0.442683)
(-0.340391 0 0.429146)
(-0.351049 0 0.415854)
(-0.361439 0 0.40282)
(-0.37157 0 0.390057)
(-0.381452 0 0.377574)
(-0.391084 0 0.365372)
(-0.400468 0 0.353453)
(-0.409606 0 0.341817)
(-0.4185 0 0.330462)
(-0.427152 0 0.319387)
(-0.435564 0 0.308588)
(-0.443738 0 0.298064)
(-0.451676 0 0.28781)
(-0.45938 0 0.277824)
(-0.466851 0 0.268101)
(-0.474091 0 0.258638)
(-0.481103 0 0.24943)
(-0.487887 0 0.240472)
(-0.019993 0 0.550899)
(-0.0415549 0 0.60075)
(-0.06529 0 0.622717)
(-0.0876193 0 0.635108)
(-0.107952 0 0.640101)
(-0.126508 0 0.638806)
(-0.14377 0 0.632681)
(-0.160071 0 0.623212)
(-0.175611 0 0.611556)
(-0.190491 0 0.598509)
(-0.204788 0 0.584598)
(-0.218561 0 0.570171)
(-0.231859 0 0.555464)
(-0.244724 0 0.540636)
(-0.257191 0 0.525797)
(-0.269289 0 0.511027)
(-0.281042 0 0.496381)
(-0.292472 0 0.481903)
(-0.303594 0 0.467624)
(-0.314424 0 0.453568)
(-0.324974 0 0.439752)
(-0.335253 0 0.426191)
(-0.34527 0 0.412897)
(-0.355031 0 0.39988)
(-0.364543 0 0.387146)
(-0.373808 0 0.374697)
(-0.382829 0 0.362533)
(-0.391606 0 0.350653)
(-0.400144 0 0.339057)
(-0.408444 0 0.327743)
(-0.416508 0 0.316708)
(-0.424339 0 0.305948)
(-0.431939 0 0.295462)
(-0.439311 0 0.285245)
(-0.446455 0 0.275294)
(-0.453374 0 0.265604)
(-0.460071 0 0.25617)
(-0.466547 0 0.246989)
(-0.0186191 0 0.576822)
(-0.0395302 0 0.626163)
(-0.0618667 0 0.645757)
(-0.082871 0 0.655806)
(-0.102041 0 0.658913)
(-0.11958 0 0.656205)
(-0.135934 0 0.649033)
(-0.151413 0 0.638748)
(-0.166206 0 0.626414)
(-0.180408 0 0.612777)
(-0.194087 0 0.598339)
(-0.207294 0 0.583437)
(-0.220068 0 0.568295)
(-0.232444 0 0.553067)
(-0.244448 0 0.537856)
(-0.256103 0 0.522738)
(-0.267431 0 0.507765)
(-0.278448 0 0.492977)
(-0.289167 0 0.478403)
(-0.299603 0 0.464064)
(-0.309765 0 0.449975)
(-0.319663 0 0.436151)
(-0.329302 0 0.4226)
(-0.33869 0 0.409332)
(-0.347833 0 0.396351)
(-0.356732 0 0.383658)
(-0.36539 0 0.371252)
(-0.37381 0 0.359133)
(-0.381995 0 0.347301)
(-0.389947 0 0.335752)
(-0.397669 0 0.324485)
(-0.405163 0 0.313496)
(-0.412432 0 0.302782)
(-0.419477 0 0.29234)
(-0.426302 0 0.282166)
(-0.432908 0 0.272255)
(-0.439297 0 0.262603)
(-0.445472 0 0.253205)
(-0.0192856 0 0.601633)
(-0.0377602 0 0.650191)
(-0.058557 0 0.667306)
(-0.0781865 0 0.675248)
(-0.0962136 0 0.676653)
(-0.11277 0 0.672656)
(-0.128245 0 0.664528)
(-0.142929 0 0.653505)
(-0.156998 0 0.640564)
(-0.17054 0 0.626401)
(-0.183615 0 0.611492)
(-0.196264 0 0.596159)
(-0.208519 0 0.58062)
(-0.220406 0 0.56502)
(-0.231945 0 0.54946)
(-0.243155 0 0.534012)
(-0.254053 0 0.518727)
(-0.264652 0 0.503641)
(-0.274965 0 0.488781)
(-0.285002 0 0.474167)
(-0.294773 0 0.459812)
(-0.304285 0 0.445729)
(-0.313546 0 0.431927)
(-0.322559 0 0.418412)
(-0.331331 0 0.405188)
(-0.339865 0 0.392255)
(-0.348163 0 0.379612)
(-0.356228 0 0.367259)
(-0.364064 0 0.355195)
(-0.371672 0 0.343418)
(-0.379056 0 0.331924)
(-0.386218 0 0.320712)
(-0.39316 0 0.309777)
(-0.399886 0 0.299116)
(-0.406397 0 0.288725)
(-0.412696 0 0.2786)
(-0.418785 0 0.268736)
(-0.424667 0 0.259128)
(-0.0198825 0 0.626585)
(-0.0354382 0 0.672077)
(-0.0549982 0 0.68726)
(-0.0733994 0 0.693502)
(-0.0903873 0 0.693379)
(-0.106018 0 0.688202)
(-0.120658 0 0.679204)
(-0.134585 0 0.667519)
(-0.147962 0 0.654036)
(-0.160869 0 0.639403)
(-0.173358 0 0.624071)
(-0.185462 0 0.608348)
(-0.197206 0 0.592443)
(-0.208606 0 0.576497)
(-0.21968 0 0.560609)
(-0.230444 0 0.544848)
(-0.240909 0 0.529264)
(-0.251087 0 0.513891)
(-0.260989 0 0.498755)
(-0.270624 0 0.483873)
(-0.280001 0 0.469259)
(-0.289126 0 0.454924)
(-0.298005 0 0.440876)
(-0.306643 0 0.42712)
(-0.315046 0 0.413658)
(-0.323215 0 0.40049)
(-0.331154 0 0.387616)
(-0.338867 0 0.375035)
(-0.346356 0 0.362745)
(-0.353624 0 0.350745)
(-0.360674 0 0.339031)
(-0.367508 0 0.327601)
(-0.37413 0 0.316452)
(-0.380541 0 0.305578)
(-0.386745 0 0.294977)
(-0.392743 0 0.284645)
(-0.398539 0 0.274575)
(-0.404134 0 0.264765)
(-0.0154466 0 0.650078)
(-0.0322318 0 0.691945)
(-0.0511016 0 0.70619)
(-0.068554 0 0.71079)
(-0.0845931 0 0.709171)
(-0.0993367 0 0.702891)
(-0.11318 0 0.693104)
(-0.126387 0 0.680824)
(-0.139103 0 0.666859)
(-0.151401 0 0.651807)
(-0.163322 0 0.636093)
(-0.174892 0 0.620013)
(-0.186129 0 0.603769)
(-0.197045 0 0.587499)
(-0.207655 0 0.571301)
(-0.217969 0 0.555243)
(-0.227998 0 0.539373)
(-0.237753 0 0.523724)
(-0.247241 0 0.50832)
(-0.256472 0 0.49318)
(-0.265452 0 0.478315)
(-0.274188 0 0.463735)
(-0.282684 0 0.449446)
(-0.290947 0 0.435454)
(-0.298979 0 0.42176)
(-0.306786 0 0.408364)
(-0.314368 0 0.395265)
(-0.32173 0 0.382462)
(-0.328876 0 0.369953)
(-0.335807 0 0.357737)
(-0.342526 0 0.34581)
(-0.349037 0 0.334169)
(-0.355342 0 0.322811)
(-0.361444 0 0.311732)
(-0.367345 0 0.300928)
(-0.373049 0 0.290395)
(-0.378556 0 0.280127)
(-0.383871 0 0.270121)
(-0.00948686 0 0.668753)
(-0.0298382 0 0.71185)
(-0.0475735 0 0.724652)
(-0.0639513 0 0.727129)
(-0.0789338 0 0.724023)
(-0.0927782 0 0.716745)
(-0.105851 0 0.706259)
(-0.118367 0 0.693453)
(-0.130449 0 0.679059)
(-0.142156 0 0.66363)
(-0.153522 0 0.647569)
(-0.164564 0 0.63116)
(-0.175297 0 0.614601)
(-0.185729 0 0.598027)
(-0.195872 0 0.581536)
(-0.205734 0 0.565195)
(-0.215325 0 0.54905)
(-0.224652 0 0.533136)
(-0.233723 0 0.517475)
(-0.242546 0 0.502084)
(-0.251127 0 0.486976)
(-0.259472 0 0.472158)
(-0.267585 0 0.457637)
(-0.275471 0 0.443416)
(-0.283134 0 0.429497)
(-0.290578 0 0.415879)
(-0.297805 0 0.402562)
(-0.304819 0 0.389544)
(-0.311623 0 0.376823)
(-0.31822 0 0.364397)
(-0.324613 0 0.352263)
(-0.330804 0 0.340419)
(-0.336797 0 0.32886)
(-0.342594 0 0.317582)
(-0.348198 0 0.306583)
(-0.353611 0 0.295856)
(-0.358836 0 0.285399)
(-0.363875 0 0.275204)
(-0.0125905 0 0.685026)
(-0.0292517 0 0.732186)
(-0.0448403 0 0.741714)
(-0.0596267 0 0.742126)
(-0.0734133 0 0.737851)
(-0.0863749 0 0.729771)
(-0.0987092 0 0.718694)
(-0.110562 0 0.705431)
(-0.12203 0 0.690656)
(-0.133159 0 0.674887)
(-0.143975 0 0.658508)
(-0.154492 0 0.641793)
(-0.164719 0 0.624938)
(-0.174665 0 0.608078)
(-0.184336 0 0.591309)
(-0.193742 0 0.574698)
(-0.202889 0 0.558292)
(-0.211784 0 0.542124)
(-0.220435 0 0.526216)
(-0.228847 0 0.510585)
(-0.237026 0 0.495242)
(-0.244978 0 0.480194)
(-0.252707 0 0.465447)
(-0.260216 0 0.451005)
(-0.26751 0 0.436868)
(-0.274592 0 0.423036)
(-0.281465 0 0.409508)
(-0.288132 0 0.396281)
(-0.294598 0 0.383355)
(-0.300863 0 0.370728)
(-0.306933 0 0.358395)
(-0.312808 0 0.346354)
(-0.318492 0 0.334602)
(-0.323988 0 0.323134)
(-0.329298 0 0.311946)
(-0.334426 0 0.301034)
(-0.339373 0 0.290393)
(-0.344142 0 0.280019)
(-0.0210188 0 0.704524)
(-0.0282449 0 0.749382)
(-0.0418784 0 0.756043)
(-0.0551266 0 0.755645)
(-0.0679369 0 0.750719)
(-0.0801398 0 0.742028)
(-0.0917893 0 0.73045)
(-0.103005 0 0.716783)
(-0.113872 0 0.701663)
(-0.124429 0 0.685582)
(-0.134696 0 0.668909)
(-0.144684 0 0.65191)
(-0.154401 0 0.634777)
(-0.163854 0 0.617648)
(-0.173048 0 0.600616)
(-0.181991 0 0.583749)
(-0.19069 0 0.567095)
(-0.199149 0 0.550684)
(-0.207375 0 0.53454)
(-0.215373 0 0.518678)
(-0.223147 0 0.503109)
(-0.230704 0 0.48784)
(-0.238046 0 0.472876)
(-0.245178 0 0.458221)
(-0.252103 0 0.443874)
(-0.258824 0 0.429835)
(-0.265344 0 0.416104)
(-0.271667 0 0.402677)
(-0.277796 0 0.389554)
(-0.283733 0 0.376732)
(-0.289482 0 0.364208)
(-0.295044 0 0.351979)
(-0.300423 0 0.340041)
(-0.305622 0 0.32839)
(-0.310643 0 0.317021)
(-0.315489 0 0.305932)
(-0.320162 0 0.295116)
(-0.324666 0 0.284569)
(-0.0188042 0 0.726843)
(-0.0245969 0 0.761697)
(-0.0375663 0 0.768558)
(-0.0502901 0 0.768351)
(-0.0625591 0 0.762902)
(-0.0741269 0 0.753619)
(-0.0851293 0 0.741567)
(-0.0957237 0 0.727524)
(-0.105995 0 0.712086)
(-0.115978 0 0.695717)
(-0.125691 0 0.678769)
(-0.135144 0 0.661504)
(-0.144343 0 0.644112)
(-0.153296 0 0.626728)
(-0.162006 0 0.60945)
(-0.170481 0 0.592342)
(-0.178725 0 0.575452)
(-0.186742 0 0.558811)
(-0.194538 0 0.542442)
(-0.202118 0 0.526359)
(-0.209485 0 0.510574)
(-0.216645 0 0.495094)
(-0.2236 0 0.479923)
(-0.230354 0 0.465063)
(-0.23691 0 0.450515)
(-0.243271 0 0.436279)
(-0.24944 0 0.422352)
(-0.25542 0 0.408734)
(-0.261214 0 0.395422)
(-0.266824 0 0.382414)
(-0.272254 0 0.369707)
(-0.277507 0 0.357297)
(-0.282584 0 0.34518)
(-0.287488 0 0.333354)
(-0.292223 0 0.321814)
(-0.296791 0 0.310554)
(-0.301195 0 0.299571)
(-0.305437 0 0.28886)
(-0.00697494 0 0.744362)